 Gaussian 16, Revision A.03,
 Gaussian 16:  ES64L-G16RevA.03 25-Dec-2016

 ----------------------------------------------------------------------
 # wB97XD def2tzvp, opt=(ts, noeigen, calcfc, maxcycles=70, maxstep=5),
  freq=noraman, scrf=(iefpcm, solvent=water)
 ----------------------------------------------------------------------

 ------------------------
 2_iteration/TS-819-2.out
 ------------------------
 Symbolic Z-matrix:
 Charge =  0 Multiplicity = 1

 SCF Done:  E(RwB97XD) =  -1073.14012184     A.U. after   14 cycles
 SCF Done:  E(RwB97XD) =  -1073.14024584     A.U. after   12 cycles
 SCF Done:  E(RwB97XD) =  -1073.14025390     A.U. after   10 cycles
 SCF Done:  E(RwB97XD) =  -1073.14025454     A.U. after    9 cycles
 SCF Done:  E(RwB97XD) =  -1073.14025455     A.U. after    7 cycles
 Optimization completed.
    -- Stationary point found.
 Normal termination of Gaussian 16 at Fri Feb 26 11:56:08 2021.

 ---------------------------------------------------------------------
 #N Geom=AllCheck Guess=TCheck SCRF=Check GenChk RwB97XD/def2TZVP Freq
 ---------------------------------------------------------------------

 Structure from the checkpoint file:  "/beegfs/scratch/user/q/tla25/Gau-9967.chk"
 ------------------------
 2_iteration/TS-819-2.out
 ------------------------
 Charge =  0 Multiplicity = 1

                         Standard orientation:
 ---------------------------------------------------------------------
 Center     Atomic      Atomic             Coordinates (Angstroms)
 Number     Number       Type             X           Y           Z
 ---------------------------------------------------------------------
      1          6           0        1.505661    0.336101   -0.289295
      2          6           0        1.329842    1.654091    0.261022
      3          8           0        0.381502    2.041643    0.961984
      4          6           0        0.464934   -0.598373   -0.210188
      5          6           0        1.115148   -1.106524    2.397080
      6          1           0        0.215279   -0.695268    2.845319
      7          1           0        1.585642   -1.806425    3.084811
      8          1           0        1.802531   -0.292439    2.170453
      9          7           0        0.784824   -1.770832    1.135823
     10          1           0        1.592669   -2.275021    0.785844
     11          1           0        0.038802   -2.452904    1.231588
     12         17           0        0.501738   -1.889150   -1.537986
     13          6           0       -0.973782   -0.164993   -0.088958
     14          6           0       -1.448717    0.690595   -1.084005
     15          6           0       -2.764955    1.109230   -1.094845
     16          6           0       -3.644622    0.674428   -0.110678
     17          6           0       -3.188425   -0.186586    0.871092
     18          6           0       -1.864625   -0.609894    0.877658
     19          1           0       -0.765163    1.033376   -1.849883
     20          1           0       -3.107552    1.778136   -1.874225
     21          1           0       -4.676423    1.001722   -0.114937
     22          1           0       -3.860669   -0.538891    1.642995
     23          1           0       -1.561732   -1.278596    1.669604
     24          6           0        2.864687   -0.057330   -0.821636
     25          1           0        2.973409   -1.138950   -0.892079
     26          1           0        3.062215    0.334971   -1.826867
     27          1           0        3.667415    0.298256   -0.170997
     28          7           0        2.358068    2.548917    0.015736
     29          1           0        2.945569    2.417887   -0.789379
     30          1           0        2.135327    3.505495    0.233250
 ---------------------------------------------------------------------

 SCF Done:  E(RwB97XD) =  -1073.14025455     A.U. after    1 cycles

 The electronic state is 1-A.
 Alpha  occ. eigenvalues -- -101.68895 -19.18661 -14.50867 -14.42667 -10.40522
 Alpha  occ. eigenvalues --  -10.36589 -10.32162 -10.31235 -10.29635 -10.29214
 Alpha  occ. eigenvalues --  -10.29114 -10.29070 -10.29028 -10.27175 -10.25413
 Alpha  occ. eigenvalues --   -9.57504  -7.32100  -7.31308  -7.31275  -1.11155
 Alpha  occ. eigenvalues --   -1.06483  -0.98074  -0.98009  -0.95032  -0.87566
 Alpha  occ. eigenvalues --   -0.85795  -0.85341  -0.79990  -0.77877  -0.72469
 Alpha  occ. eigenvalues --   -0.70976  -0.69139  -0.65658  -0.62899  -0.61327
 Alpha  occ. eigenvalues --   -0.59733  -0.58484  -0.56659  -0.55641  -0.53996
 Alpha  occ. eigenvalues --   -0.52819  -0.51423  -0.51090  -0.50334  -0.49977
 Alpha  occ. eigenvalues --   -0.48654  -0.47468  -0.46866  -0.45951  -0.45826
 Alpha  occ. eigenvalues --   -0.45577  -0.43102  -0.42892  -0.39671  -0.39442
 Alpha  occ. eigenvalues --   -0.35087  -0.34277  -0.33294  -0.31334  -0.26257
 Alpha virt. eigenvalues --    0.03140   0.05161   0.07570   0.09272   0.10098
 Alpha virt. eigenvalues --    0.12342   0.13335   0.14446   0.15298   0.15888
 Alpha virt. eigenvalues --    0.16415   0.17245   0.18186   0.18438   0.19011

 Mulliken charges:
               1
     1  C   -0.306388
     2  C    0.320694
     3  O   -0.550700
     4  C    0.230391
     5  C   -0.295611
     6  H    0.156490
     7  H    0.167079
     8  H    0.165525
     9  N   -0.262524
    10  H    0.286824
    11  H    0.291831
    12  Cl  -0.174223
    13  C    0.290312
    14  C   -0.320163
    15  C   -0.125510
    16  C   -0.156694
    17  C   -0.165985
    18  C   -0.245958
    19  H    0.150253
    20  H    0.142728
    21  H    0.144150
    22  H    0.143550
    23  H    0.137914
    24  C   -0.445957
    25  H    0.127166
    26  H    0.135222
    27  H    0.136370
    28  N   -0.496390
    29  H    0.267524
    30  H    0.252079
 Sum of Mulliken charges =  -0.00000

 Dipole moment (field-independent basis, Debye):
    X=              1.9071    Y=             -5.4757    Z=              2.0740  Tot=              6.1581
 Quadrupole moment (field-independent basis, Debye-Ang):
   XX=            -85.0909   YY=            -90.6425   ZZ=            -92.5252
   XY=             -1.3880   XZ=             -0.5157   YZ=            -20.1230

  Exact polarizability: 247.353   0.747 229.336 -16.180 -13.422 206.958
 Approx polarizability: 194.377  -2.008 186.611 -13.546 -11.666 178.135

 ******    1 imaginary frequencies (negative Signs) ******

                      1                      2                      3
                      A                      A                      A
 Frequencies --   -356.1262                38.0869                60.8624
 Red. masses --      5.2679                 3.5764                 3.4687
 Frc consts  --      0.3936                 0.0031                 0.0076
 IR Inten    --    642.2240                 3.0971                10.2887

                      4                      5                      6
                      A                      A                      A
 Frequencies --     68.6988                86.9350               132.0089
 Red. masses --      4.0262                 4.5918                 1.6560
 Frc consts  --      0.0112                 0.0204                 0.0170
 IR Inten    --      0.2548                 8.3365                 4.0724

                      7                      8                      9
                      A                      A                      A
 Frequencies --    132.4717               152.7282               157.7086
 Red. masses --      2.5264                 2.1657                 1.4262
 Frc consts  --      0.0261                 0.0298                 0.0209
 IR Inten    --      9.0232                 4.3979                 0.3755

                     10                     11                     12
                      A                      A                      A
 Frequencies --    197.6038               216.9794               231.8130
 Red. masses --      5.7586                 3.4085                 2.9305
 Frc consts  --      0.1325                 0.0945                 0.0928
 IR Inten    --     16.4827                 9.1687                 6.5156

                     13                     14                     15
                      A                      A                      A
 Frequencies --    269.6868               291.9548               340.8529
 Red. masses --      4.0075                 4.2630                 3.6855
 Frc consts  --      0.1717                 0.2141                 0.2523
 IR Inten    --      6.9223                22.0994                15.1656

                     16                     17                     18
                      A                      A                      A
 Frequencies --    348.6236               361.9507               377.5813
 Red. masses --      4.0775                 3.1395                 4.6146
 Frc consts  --      0.2920                 0.2423                 0.3876
 IR Inten    --     42.6946                45.5343                11.6598

                     19                     20                     21
                      A                      A                      A
 Frequencies --    423.6890               430.8154               494.0057
 Red. masses --      2.8470                 1.2971                 1.1216
 Frc consts  --      0.3011                 0.1418                 0.1613
 IR Inten    --      5.5948               420.7184                50.7191

                     22                     23                     24
                      A                      A                      A
 Frequencies --    518.4982               551.7763               574.0275
 Red. masses --      3.3546                 4.5959                 4.1354
 Frc consts  --      0.5314                 0.8244                 0.8028
 IR Inten    --     37.4377                31.1061               213.7251

                     25                     26                     27
                      A                      A                      A
 Frequencies --    595.1424               638.5962               686.0073
 Red. masses --      3.0112                 6.1735                 5.3799
 Frc consts  --      0.6284                 1.4833                 1.4917
 IR Inten    --     41.0085                 5.0027                68.4247

                     28                     29                     30
                      A                      A                      A
 Frequencies --    717.1332               721.7742               760.2100
 Red. masses --      1.7521                 1.6801                 2.3670
 Frc consts  --      0.5309                 0.5157                 0.8060
 IR Inten    --     18.4923                68.6826               247.9528

                     31                     32                     33
                      A                      A                      A
 Frequencies --    791.8504               832.4371               867.5585
 Red. masses --      7.9348                 3.2594                 1.2525
 Frc consts  --      2.9314                 1.3307                 0.5554
 IR Inten    --     78.0003                56.0214                 0.3092

                     34                     35                     36
                      A                      A                      A
 Frequencies --    902.7370               950.6461              1002.0746
 Red. masses --      2.5099                 1.4641                 1.2001
 Frc consts  --      1.2051                 0.7796                 0.7100
 IR Inten    --     54.6150                 1.5075                40.2990

                     37                     38                     39
                      A                      A                      A
 Frequencies --   1008.9118              1022.3048              1026.8780
 Red. masses --      1.3417                 3.6256                 1.3052
 Frc consts  --      0.8047                 2.2325                 0.8109
 IR Inten    --     13.4310                72.8999                 0.2963

                     40                     41                     42
                      A                      A                      A
 Frequencies --   1029.3630              1062.0443              1067.3850
 Red. masses --      2.3184                 1.4167                 2.2917
 Frc consts  --      1.4474                 0.9415                 1.5383
 IR Inten    --    100.2595                11.3550                 2.1155

                     43                     44                     45
                      A                      A                      A
 Frequencies --   1074.0179              1095.8649              1102.8270
 Red. masses --      2.4288                 1.4757                 1.6504
 Frc consts  --      1.6507                 1.0441                 1.1827
 IR Inten    --     27.5381                79.7352                39.9589

                     46                     47                     48
                      A                      A                      A
 Frequencies --   1128.6077              1185.4524              1195.8494
 Red. masses --      1.5777                 1.1488                 3.7690
 Frc consts  --      1.1840                 0.9512                 3.1756
 IR Inten    --      8.7924                 0.5719                29.1868

                     49                     50                     51
                      A                      A                      A
 Frequencies --   1223.7298              1226.3540              1260.8069
 Red. masses --      1.2752                 2.3158                 1.4546
 Frc consts  --      1.1251                 2.0520                 1.3623
 IR Inten    --     13.4521                79.7420                38.7747

                     52                     53                     54
                      A                      A                      A
 Frequencies --   1321.2473              1340.1351              1368.1598
 Red. masses --      4.7889                 1.3268                 1.4020
 Frc consts  --      4.9255                 1.4039                 1.5462
 IR Inten    --      5.9117                 9.6674                 5.8163

                     55                     56                     57
                      A                      A                      A
 Frequencies --   1377.9193              1421.3131              1425.2327
 Red. masses --      4.7068                 3.1911                 1.2892
 Frc consts  --      5.2653                 3.7981                 1.5429
 IR Inten    --    424.5978               715.0755                22.5160

                     58                     59                     60
                      A                      A                      A
 Frequencies --   1458.3528              1487.4149              1489.7340
 Red. masses --      1.2791                 1.0619                 1.3103
 Frc consts  --      1.6028                 1.3842                 1.7133
 IR Inten    --     38.3448                17.1451                 3.0637

                     61                     62                     63
                      A                      A                      A
 Frequencies --   1490.8872              1503.2745              1510.5263
 Red. masses --      1.4775                 1.0734                 1.1017
 Frc consts  --      1.9349                 1.4291                 1.4811
 IR Inten    --     45.6383                16.5834               178.8550

                     64                     65                     66
                      A                      A                      A
 Frequencies --   1546.8427              1616.1871              1637.3788
 Red. masses --      2.3046                 1.3829                 1.1271
 Frc consts  --      3.2489                 2.1283                 1.7804
 IR Inten    --     35.8206               287.0009                91.3522

                     67                     68                     69
                      A                      A                      A
 Frequencies --   1653.6938              1659.4764              1676.4290
 Red. masses --      4.0579                 4.8398                 5.8618
 Frc consts  --      6.5382                 7.8527                 9.7062
 IR Inten    --    202.0144               412.1743                 0.7932

                     70                     71                     72
                      A                      A                      A
 Frequencies --   3008.3716              3075.3355              3082.4425
 Red. masses --      1.0526                 1.0883                 1.0335
 Frc consts  --      5.6125                 6.0645                 5.7857
 IR Inten    --    107.8967                47.4770                31.4689

                     73                     74                     75
                      A                      A                      A
 Frequencies --   3132.8790              3163.6037              3190.0106
 Red. masses --      1.0960                 1.1049                 1.1052
 Frc consts  --      6.3377                 6.5154                 6.6263
 IR Inten    --     25.3944                 2.0329                12.3427

                     76                     77                     78
                      A                      A                      A
 Frequencies --   3197.0253              3205.2354              3214.8253
 Red. masses --      1.0860                 1.0892                 1.0933
 Frc consts  --      6.5396                 6.5926                 6.6571
 IR Inten    --      0.6518                 5.1731                22.5399

                     79                     80                     81
                      A                      A                      A
 Frequencies --   3222.7295              3237.3158              3511.3243
 Red. masses --      1.0973                 1.0933                 1.0523
 Frc consts  --      6.7147                 6.7508                 7.6443
 IR Inten    --     25.9815                19.5100                47.9733

                     82                     83                     84
                      A                      A                      A
 Frequencies --   3584.7353              3607.0400              3722.9989
 Red. masses --      1.0951                 1.0466                 1.1017
 Frc consts  --      8.2916                 8.0229                 8.9972
 IR Inten    --     56.8106                44.1474                45.5602

 - Thermochemistry -
 -------------------
 Temperature   298.150 Kelvin.  Pressure   1.00000 Atm.
 Atom     1 has atomic number  6 and mass  12.00000

 Molecular mass:   226.08729 amu.
 Principal axes and moments of inertia in atomic units:
                           1         2         3
     Eigenvalues --  2630.918093918.083334546.77361
           X            1.00000   0.00023  -0.00043
           Y           -0.00029   0.98992  -0.14161
           Z            0.00040   0.14161   0.98992
 This molecule is an asymmetric top.
 Rotational symmetry number  1.
 Warning -- assumption of classical behavior for rotation
           may cause significant error
 Rotational temperatures (Kelvin)      0.03292     0.02211     0.01905
 Rotational constants (GHZ):           0.68597     0.46062     0.39693
    1 imaginary frequencies ignored.
 Zero-point vibrational energy     650625.0 (Joules/Mol)
                                  155.50310 (Kcal/Mol)
 Warning -- explicit consideration of  24 degrees of freedom as
           vibrations may cause significant error
 Vibrational temperatures:     54.80    87.57    98.84   125.08   189.93
          (Kelvin)            190.60   219.74   226.91   284.31   312.18
                              333.53   388.02   420.06   490.41   501.59
                              520.77   543.26   609.59   619.85   710.76
                              746.00   793.88   825.90   856.28   918.80
                              987.01  1031.79  1038.47  1093.77  1139.30
                             1197.69  1248.22  1298.84  1367.77  1441.76
                             1451.60  1470.87  1477.45  1481.02  1528.04
                             1535.73  1545.27  1576.71  1586.72  1623.81
                             1705.60  1720.56  1760.67  1764.45  1814.02
                             1900.98  1928.16  1968.48  1982.52  2044.95
                             2050.59  2098.24  2140.06  2143.39  2145.05
                             2162.88  2173.31  2225.56  2325.33  2355.82
                             2379.30  2387.62  2412.01  4328.38  4424.72
                             4434.95  4507.51  4551.72  4589.71  4599.81
                             4611.62  4625.42  4636.79  4657.78  5052.01
                             5157.63  5189.73  5356.57

 Zero-point correction=                           0.247810 (Hartree/Particle)
 Thermal correction to Energy=                    0.263312
 Thermal correction to Enthalpy=                  0.264256
 Thermal correction to Gibbs Free Energy=         0.204949
 Sum of electronic and zero-point Energies=          -1072.892445
 Sum of electronic and thermal Energies=             -1072.876943
 Sum of electronic and thermal Enthalpies=           -1072.875998
 Sum of electronic and thermal Free Energies=        -1072.935306

                     E (Thermal)             CV                S
                      KCal/Mol        Cal/Mol-Kelvin    Cal/Mol-Kelvin
 Total                  165.231             57.949            124.823
 Electronic               0.000              0.000              0.000
 Translational            0.889              2.981             42.150
 Rotational               0.889              2.981             32.216
 Vibrational            163.453             51.987             50.457
 Vibration     1          0.594              1.982              5.356
 Vibration     2          0.597              1.973              4.429
 Vibration     3          0.598              1.969              4.190
 Vibration     4          0.601              1.958              3.728
 Vibration     5          0.612              1.921              2.917
 Vibration     6          0.613              1.921              2.910
 Vibration     7          0.619              1.900              2.638
 Vibration     8          0.621              1.894              2.577
 Vibration     9          0.637              1.843              2.155
 Vibration    10          0.646              1.815              1.984
 Vibration    11          0.653              1.792              1.865
 Vibration    12          0.674              1.729              1.598
 Vibration    13          0.687              1.689              1.463
 Vibration    14          0.720              1.594              1.208
 Vibration    15          0.726              1.578              1.172
 Vibration    16          0.736              1.551              1.114
 Vibration    17          0.748              1.518              1.049
 Vibration    18          0.786              1.419              0.880
 Vibration    19          0.792              1.403              0.856
 Vibration    20          0.850              1.263              0.673
 Vibration    21          0.873              1.209              0.613
 Vibration    22          0.907              1.136              0.541
 Vibration    23          0.930              1.087              0.497
 Vibration    24          0.953              1.042              0.458

 Optimization completed.
    -- Stationary point found.
 Normal termination of Gaussian 16 at Fri Feb 26 13:01:17 2021.
