 Gaussian 16, Revision A.03,
 Gaussian 16:  ES64L-G16RevA.03 25-Dec-2016

 ----------------------------------------------------------------------
 # wB97XD def2tzvp, opt=(ts, noeigen, calcfc, maxcycles=70, maxstep=1),
  freq=noraman, scrf=(iefpcm, solvent=water)
 ----------------------------------------------------------------------

 ------------------------
 0_iteration/TS-867-0.out
 ------------------------
 Symbolic Z-matrix:
 Charge =  0 Multiplicity = 1

 SCF Done:  E(RwB97XD) =  -3376.40139258     A.U. after   15 cycles
 SCF Done:  E(RwB97XD) =  -3376.40133853     A.U. after   10 cycles
 SCF Done:  E(RwB97XD) =  -3376.40128887     A.U. after   10 cycles
 SCF Done:  E(RwB97XD) =  -3376.40124362     A.U. after   10 cycles
 SCF Done:  E(RwB97XD) =  -3376.40120286     A.U. after   10 cycles
 SCF Done:  E(RwB97XD) =  -3376.40116675     A.U. after   10 cycles
 SCF Done:  E(RwB97XD) =  -3376.40113548     A.U. after   10 cycles
 SCF Done:  E(RwB97XD) =  -3376.40110937     A.U. after   10 cycles
 SCF Done:  E(RwB97XD) =  -3376.40108868     A.U. after   10 cycles
 SCF Done:  E(RwB97XD) =  -3376.40107358     A.U. after   10 cycles
 SCF Done:  E(RwB97XD) =  -3376.40106433     A.U. after   10 cycles
 SCF Done:  E(RwB97XD) =  -3376.40106148     A.U. after   11 cycles
 SCF Done:  E(RwB97XD) =  -3376.40106145     A.U. after   10 cycles
 SCF Done:  E(RwB97XD) =  -3376.40105349     A.U. after   10 cycles
 SCF Done:  E(RwB97XD) =  -3376.40104831     A.U. after   10 cycles
 SCF Done:  E(RwB97XD) =  -3376.40104680     A.U. after   10 cycles
 SCF Done:  E(RwB97XD) =  -3376.40104690     A.U. after    7 cycles
 Optimization completed.
    -- Stationary point found.
 Normal termination of Gaussian 16 at Wed Feb 24 02:19:11 2021.

 ---------------------------------------------------------------------
 #N Geom=AllCheck Guess=TCheck SCRF=Check GenChk RwB97XD/def2TZVP Freq
 ---------------------------------------------------------------------

 Structure from the checkpoint file:  "/beegfs/scratch/user/q/tla25/Gau-66873.chk"
 ------------------------
 0_iteration/TS-867-0.out
 ------------------------
 Charge =  0 Multiplicity = 1

                         Standard orientation:
 ---------------------------------------------------------------------
 Center     Atomic      Atomic             Coordinates (Angstroms)
 Number     Number       Type             X           Y           Z
 ---------------------------------------------------------------------
      1          6           0        0.314490    0.187157   -0.379397
      2          6           0        1.214378    1.301467   -0.631428
      3          8           0        0.808409    2.359938   -1.127939
      4          6           0       -1.027546    0.343097   -0.627212
      5          6           0       -1.294347    1.893277    1.689352
      6          1           0       -0.255242    1.579162    1.794139
      7          1           0       -1.323309    2.819650    1.120518
      8          1           0       -1.719644    2.058040    2.678976
      9          7           0       -2.015715    0.859367    0.959228
     10          1           0       -2.116580    0.013419    1.508517
     11          1           0       -2.940742    1.160051    0.675114
     12         17           0       -2.040569   -1.024011   -1.077037
     13          1           0       -1.280295    1.231976   -1.187979
     14         35           0        0.942924   -1.398613    0.470331
     15          7           0        2.523618    1.155064   -0.308973
     16          1           0        2.903220    0.279804    0.001254
     17          1           0        3.155480    1.887023   -0.578671
 ---------------------------------------------------------------------

 SCF Done:  E(RwB97XD) =  -3376.40104690     A.U. after    1 cycles

 The electronic state is 1-A.
 Alpha  occ. eigenvalues -- -483.12983-101.70442 -62.67814 -56.46918 -56.46584
 Alpha  occ. eigenvalues --  -56.46574 -19.20309 -14.48594 -14.44295 -10.39053
 Alpha  occ. eigenvalues --  -10.38949 -10.31654 -10.31115  -9.59022  -8.81930
 Alpha  occ. eigenvalues --   -7.33666  -7.32808  -7.32767  -6.64043  -6.62973
 Alpha  occ. eigenvalues --   -6.62941  -2.74441  -2.74129  -2.74102  -2.73238
 Alpha  occ. eigenvalues --   -2.73237  -1.13101  -1.04291  -1.00020  -0.97765
 Alpha  occ. eigenvalues --   -0.90957  -0.82971  -0.78960  -0.73228  -0.64986
 Alpha  occ. eigenvalues --   -0.64173  -0.61638  -0.58090  -0.57303  -0.54925
 Alpha  occ. eigenvalues --   -0.52007  -0.51739  -0.49937  -0.48050  -0.46921
 Alpha  occ. eigenvalues --   -0.46330  -0.41220  -0.39832  -0.38892  -0.37888
 Alpha  occ. eigenvalues --   -0.35340  -0.34167  -0.28031
 Alpha virt. eigenvalues --    0.04872   0.07278   0.09951   0.11678   0.13387
 Alpha virt. eigenvalues --    0.15005   0.15431   0.16703   0.17661   0.18668
 Alpha virt. eigenvalues --    0.19357   0.20443   0.22509   0.23346   0.24866

 Mulliken charges:
               1
     1  C   -0.215540
     2  C    0.312851
     3  O   -0.535687
     4  C    0.004632
     5  C   -0.286822
     6  H    0.153546
     7  H    0.155508
     8  H    0.158904
     9  N   -0.349132
    10  H    0.283964
    11  H    0.292244
    12  Cl  -0.101170
    13  H    0.194112
    14  Br  -0.143202
    15  N   -0.466398
    16  H    0.270403
    17  H    0.271786
 Sum of Mulliken charges =  -0.00000

 Dipole moment (field-independent basis, Debye):
    X=             -3.2814    Y=              0.4406    Z=              4.9342  Tot=              5.9420
 Quadrupole moment (field-independent basis, Debye-Ang):
   XX=            -53.4301   YY=            -81.5255   ZZ=            -73.5242
   XY=             -6.1634   XZ=             -5.5777   YZ=              6.6070

  Exact polarizability: 168.953   1.168 144.049  -2.337  -3.201 116.692
 Approx polarizability: 132.637  -0.792 122.637   0.818  -5.628 101.411

 ******    1 imaginary frequencies (negative Signs) ******

                      1                      2                      3
                      A                      A                      A
 Frequencies --   -357.5892                62.5487                70.5690
 Red. masses --      5.8406                 4.1821                 3.7877
 Frc consts  --      0.4400                 0.0096                 0.0111
 IR Inten    --    732.0484                 1.7257                12.9448

                      4                      5                      6
                      A                      A                      A
 Frequencies --     82.8060               120.4875               136.7788
 Red. masses --      2.5140                 3.9066                16.4484
 Frc consts  --      0.0102                 0.0334                 0.1813
 IR Inten    --     23.8032                12.9799                 9.0454

                      7                      8                      9
                      A                      A                      A
 Frequencies --    165.0491               173.1520               179.6519
 Red. masses --      1.3063                 1.2789                 7.3759
 Frc consts  --      0.0210                 0.0226                 0.1403
 IR Inten    --     25.3089               305.9685                 6.2974

                     10                     11                     12
                      A                      A                      A
 Frequencies --    234.0153               298.8956               363.0541
 Red. masses --      3.7861                 3.7984                10.7518
 Frc consts  --      0.1222                 0.1999                 0.8350
 IR Inten    --     16.1032                35.0267                27.8935

                     13                     14                     15
                      A                      A                      A
 Frequencies --    396.7412               450.3603               531.6813
 Red. masses --      6.9635                 3.0880                 2.1520
 Frc consts  --      0.6458                 0.3690                 0.3584
 IR Inten    --     13.8685                97.6549                10.3077

                     16                     17                     18
                      A                      A                      A
 Frequencies --    548.0329               627.8245               705.8165
 Red. masses --      1.2072                 3.7970                 1.9283
 Frc consts  --      0.2136                 0.8818                 0.5660
 IR Inten    --      8.9030                73.2949                33.8512

                     19                     20                     21
                      A                      A                      A
 Frequencies --    775.1093               814.1843              1000.2590
 Red. masses --      7.8296                 5.0534                 1.1568
 Frc consts  --      2.7715                 1.9737                 0.6819
 IR Inten    --     30.6300               145.2447                16.4505

                     22                     23                     24
                      A                      A                      A
 Frequencies --   1021.5957              1037.5634              1083.7301
 Red. masses --      1.1326                 2.5719                 4.6711
 Frc consts  --      0.6964                 1.6313                 3.2323
 IR Inten    --     84.7515                17.1224                43.8669

                     25                     26                     27
                      A                      A                      A
 Frequencies --   1090.3254              1129.4749              1215.8406
 Red. masses --      2.0335                 1.1083                 1.4029
 Frc consts  --      1.4243                 0.8330                 1.2219
 IR Inten    --     15.1206                59.4965                36.4222

                     28                     29                     30
                      A                      A                      A
 Frequencies --   1216.9718              1342.1634              1389.7545
 Red. masses --      1.3075                 1.3261                 4.3175
 Frc consts  --      1.1409                 1.4075                 4.9131
 IR Inten    --     36.8562                 0.8300               422.7961

                     31                     32                     33
                      A                      A                      A
 Frequencies --   1435.0425              1471.9972              1488.4755
 Red. masses --      3.3310                 1.4287                 1.0407
 Frc consts  --      4.0416                 1.8240                 1.3584
 IR Inten    --    929.0147               167.4300                14.6964

                     34                     35                     36
                      A                      A                      A
 Frequencies --   1505.5177              1601.3215              1645.3126
 Red. masses --      1.0342                 1.4336                 1.0908
 Frc consts  --      1.3811                 2.1659                 1.7397
 IR Inten    --     27.0375               303.9288                53.3987

                     37                     38                     39
                      A                      A                      A
 Frequencies --   1659.5504              3068.7483              3143.2617
 Red. masses --      4.7051                 1.0336                 1.1047
 Frc consts  --      7.6348                 5.7348                 6.4308
 IR Inten    --    597.9749                30.0463                12.0741

                     40                     41                     42
                      A                      A                      A
 Frequencies --   3172.5574              3225.6740              3525.5255
 Red. masses --      1.1049                 1.0898                 1.0505
 Frc consts  --      6.5524                 6.6810                 7.6927
 IR Inten    --     11.7368                 4.7350                57.2712

                     43                     44                     45
                      A                      A                      A
 Frequencies --   3609.9547              3629.1634              3756.1423
 Red. masses --      1.0968                 1.0454                 1.1053
 Frc consts  --      8.4215                 8.1125                 9.1878
 IR Inten    --     50.1673                88.1416               103.5020

 - Thermochemistry -
 -------------------
 Temperature   298.150 Kelvin.  Pressure   1.00000 Atm.
 Atom     1 has atomic number  6 and mass  12.00000

 Molecular mass:   213.95085 amu.
 Principal axes and moments of inertia in atomic units:
                           1         2         3
     Eigenvalues --  1949.511232197.310483058.80887
           X            0.99680   0.05518  -0.05791
           Y           -0.05166   0.99683   0.06058
           Z            0.06107  -0.05739   0.99648
 This molecule is an asymmetric top.
 Rotational symmetry number  1.
 Warning -- assumption of classical behavior for rotation
           may cause significant error
 Rotational temperatures (Kelvin)      0.04443     0.03942     0.02832
 Rotational constants (GHZ):           0.92574     0.82134     0.59001
    1 imaginary frequencies ignored.
 Zero-point vibrational energy     336166.7 (Joules/Mol)
                                   80.34577 (Kcal/Mol)
 Warning -- explicit consideration of  15 degrees of freedom as
           vibrations may cause significant error
 Vibrational temperatures:     89.99   101.53   119.14   173.35   196.79
          (Kelvin)            237.47   249.13   258.48   336.70   430.04
                              522.35   570.82   647.97   764.97   788.50
                              903.30  1015.51  1115.21  1171.43  1439.15
                             1469.85  1492.82  1559.25  1568.74  1625.06
                             1749.32  1750.95  1931.07  1999.55  2064.71
                             2117.88  2141.58  2166.10  2303.94  2367.24
                             2387.72  4415.24  4522.45  4564.60  4641.03
                             5072.44  5193.92  5221.56  5404.25

 Zero-point correction=                           0.128039 (Hartree/Particle)
 Thermal correction to Energy=                    0.139337
 Thermal correction to Enthalpy=                  0.140282
 Thermal correction to Gibbs Free Energy=         0.089213
 Sum of electronic and zero-point Energies=          -3376.273008
 Sum of electronic and thermal Energies=             -3376.261709
 Sum of electronic and thermal Enthalpies=           -3376.260765
 Sum of electronic and thermal Free Energies=        -3376.311834

                     E (Thermal)             CV                S
                      KCal/Mol        Cal/Mol-Kelvin    Cal/Mol-Kelvin
 Total                   87.436             37.628            107.483
 Electronic               0.000              0.000              0.000
 Translational            0.889              2.981             41.985
 Rotational               0.889              2.981             30.950
 Vibrational             85.658             31.666             34.548
 Vibration     1          0.597              1.972              4.375
 Vibration     2          0.598              1.968              4.137
 Vibration     3          0.600              1.961              3.823
 Vibration     4          0.609              1.932              3.093
 Vibration     5          0.614              1.917              2.848
 Vibration     6          0.623              1.885              2.491
 Vibration     7          0.627              1.876              2.401
 Vibration     8          0.629              1.867              2.332
 Vibration     9          0.654              1.789              1.848
 Vibration    10          0.692              1.676              1.423
 Vibration    11          0.737              1.548              1.109
 Vibration    12          0.763              1.477              0.975
 Vibration    13          0.809              1.360              0.795
 Vibration    14          0.887              1.180              0.583
 Vibration    15          0.903              1.144              0.548

 Optimization completed.
    -- Stationary point found.
 Normal termination of Gaussian 16 at Wed Feb 24 02:29:38 2021.
