 Gaussian 16, Revision A.03,
 Gaussian 16:  ES64L-G16RevA.03 25-Dec-2016

 ----------------------------------------------------------------------
 # wB97XD def2tzvp, opt=(ts, noeigen, calcfc, maxcycles=70, maxstep=5),
  freq=noraman, scrf=(iefpcm, solvent=water)
 ----------------------------------------------------------------------

 ------------------------
 2_iteration/TS-837-2.out
 ------------------------
 Symbolic Z-matrix:
 Charge =  0 Multiplicity = 1

 SCF Done:  E(RwB97XD) =  -1532.74251422     A.U. after   15 cycles
 SCF Done:  E(RwB97XD) =  -1532.74251464     A.U. after    8 cycles
 Optimization completed.
    -- Stationary point found.
 Normal termination of Gaussian 16 at Fri Feb 26 11:33:35 2021.

 ---------------------------------------------------------------------
 #N Geom=AllCheck Guess=TCheck SCRF=Check GenChk RwB97XD/def2TZVP Freq
 ---------------------------------------------------------------------

 Structure from the checkpoint file:  "/beegfs/scratch/user/q/tla25/Gau-12423.chk"
 ------------------------
 2_iteration/TS-837-2.out
 ------------------------
 Charge =  0 Multiplicity = 1

                         Standard orientation:
 ---------------------------------------------------------------------
 Center     Atomic      Atomic             Coordinates (Angstroms)
 Number     Number       Type             X           Y           Z
 ---------------------------------------------------------------------
      1          6           0        1.119123   -0.222302   -0.285505
      2          6           0        1.388566    1.151305    0.111403
      3          8           0        0.551340    1.869532    0.672488
      4          6           0       -0.109941   -0.858031   -0.114119
      5          6           0        0.420253   -1.087318    2.603062
      6          1           0       -0.343071   -0.393959    2.944812
      7          1           0        0.701297   -1.755499    3.415342
      8          1           0        1.293383   -0.521472    2.281239
      9          7           0       -0.073432   -1.848337    1.456578
     10          1           0        0.587621   -2.577604    1.209705
     11          1           0       -0.959882   -2.307372    1.638824
     12         17           0       -0.408464   -2.294865   -1.190622
     13          6           0       -1.371211   -0.033692   -0.094859
     14          6           0       -1.608375    0.766055   -1.213212
     15          6           0       -2.763695    1.516644   -1.315965
     16          6           0       -3.713624    1.478819   -0.302841
     17          6           0       -3.493651    0.676469    0.802533
     18          6           0       -2.333599   -0.081309    0.903305
     19          1           0       -0.868859    0.799765   -2.002558
     20          1           0       -2.923935    2.134786   -2.190134
     21          1           0       -4.618895    2.067231   -0.379466
     22          1           0       -4.225746    0.631704    1.598547
     23          1           0       -2.209849   -0.688939    1.786802
     24         17           0        2.503670   -1.227542   -0.714865
     25          7           0        2.626075    1.641381   -0.159277
     26          6           0        2.986173    3.000024    0.163870
     27          1           0        3.279082    1.074280   -0.666697
     28          1           0        4.043451    3.138702   -0.052606
     29          1           0        2.411721    3.724580   -0.418958
     30          1           0        2.815838    3.207153    1.221382
 ---------------------------------------------------------------------

 SCF Done:  E(RwB97XD) =  -1532.74251464     A.U. after    1 cycles

 The electronic state is 1-A.
 Alpha  occ. eigenvalues -- -101.69777-101.69286 -19.19701 -14.50498 -14.44320
 Alpha  occ. eigenvalues --  -10.41458 -10.38009 -10.32251 -10.31681 -10.31066
 Alpha  occ. eigenvalues --  -10.30570 -10.29879 -10.29388 -10.29380 -10.29289
 Alpha  occ. eigenvalues --  -10.29231  -9.58374  -9.57821  -7.33007  -7.32437
 Alpha  occ. eigenvalues --   -7.32162  -7.32123  -7.31630  -7.31592  -1.12715
 Alpha  occ. eigenvalues --   -1.06254  -1.01283  -0.99254  -0.96576  -0.93867
 Alpha  occ. eigenvalues --   -0.87535  -0.85703  -0.82675  -0.80160  -0.79754
 Alpha  occ. eigenvalues --   -0.72536  -0.71166  -0.68635  -0.65695  -0.65463
 Alpha  occ. eigenvalues --   -0.61777  -0.59491  -0.58350  -0.57117  -0.55606
 Alpha  occ. eigenvalues --   -0.54588  -0.53976  -0.52931  -0.52212  -0.51400
 Alpha  occ. eigenvalues --   -0.51275  -0.49105  -0.48157  -0.47584  -0.47320
 Alpha  occ. eigenvalues --   -0.46635  -0.45977  -0.44363  -0.43335  -0.42360
 Alpha  occ. eigenvalues --   -0.41277  -0.39794  -0.39050  -0.35251  -0.34316
 Alpha  occ. eigenvalues --   -0.32972  -0.31983  -0.27291
 Alpha virt. eigenvalues --    0.02677   0.04948   0.06121   0.08539   0.10498
 Alpha virt. eigenvalues --    0.12339   0.12871   0.14041   0.14618   0.15285
 Alpha virt. eigenvalues --    0.15921   0.16263   0.16939   0.17846   0.18637

 Mulliken charges:
               1
     1  C   -0.285331
     2  C    0.377899
     3  O   -0.541289
     4  C    0.205413
     5  C   -0.294319
     6  H    0.156964
     7  H    0.166975
     8  H    0.163809
     9  N   -0.298499
    10  H    0.287942
    11  H    0.294495
    12  Cl  -0.133444
    13  C    0.271376
    14  C   -0.316377
    15  C   -0.117128
    16  C   -0.155352
    17  C   -0.163032
    18  C   -0.236887
    19  H    0.153125
    20  H    0.144790
    21  H    0.145598
    22  H    0.145088
    23  H    0.140505
    24  Cl  -0.173958
    25  N   -0.326009
    26  C   -0.246592
    27  H    0.245389
    28  H    0.139218
    29  H    0.123764
    30  H    0.125867
 Sum of Mulliken charges =  -0.00000

 Dipole moment (field-independent basis, Debye):
    X=             -0.4945    Y=             -3.7904    Z=              4.1673  Tot=              5.6549
 Quadrupole moment (field-independent basis, Debye-Ang):
   XX=            -95.8559   YY=           -105.2276   ZZ=            -98.4173
   XY=              3.3656   XZ=             -2.5806   YZ=            -17.5573

  Exact polarizability: 267.769  -7.921 243.842 -20.885 -11.330 218.855
 Approx polarizability: 211.407 -10.073 198.786 -18.411  -8.460 190.699

 ******    1 imaginary frequencies (negative Signs) ******

                      1                      2                      3
                      A                      A                      A
 Frequencies --   -342.6959                39.2282                44.6241
 Red. masses --      5.4285                 3.7286                 4.2402
 Frc consts  --      0.3756                 0.0034                 0.0050
 IR Inten    --    621.3435                 3.4760                 7.4755

                      4                      5                      6
                      A                      A                      A
 Frequencies --     58.5119                76.6684                83.9420
 Red. masses --      5.3701                 1.7393                 4.7669
 Frc consts  --      0.0108                 0.0060                 0.0198
 IR Inten    --      0.4890                 7.6470                 5.8979

                      7                      8                      9
                      A                      A                      A
 Frequencies --    122.2097               124.6370               142.1129
 Red. masses --      2.0554                 3.2313                 4.4324
 Frc consts  --      0.0181                 0.0296                 0.0527
 IR Inten    --      2.6954                11.1397                14.1612

                     10                     11                     12
                      A                      A                      A
 Frequencies --    159.2689               175.4640               206.7511
 Red. masses --      1.3587                 3.6919                 6.3336
 Frc consts  --      0.0203                 0.0670                 0.1595
 IR Inten    --      3.4082                 6.8293                 4.7129

                     13                     14                     15
                      A                      A                      A
 Frequencies --    215.6472               236.3245               273.1675
 Red. masses --      3.3391                 3.3514                 6.1693
 Frc consts  --      0.0915                 0.1103                 0.2712
 IR Inten    --     11.4167                 2.2658                 6.1136

                     16                     17                     18
                      A                      A                      A
 Frequencies --    283.0987               302.0060               329.0494
 Red. masses --      4.4322                 4.4759                 3.5010
 Frc consts  --      0.2093                 0.2405                 0.2233
 IR Inten    --      4.5239                12.2999                25.7398

                     19                     20                     21
                      A                      A                      A
 Frequencies --    354.0836               373.7427               406.2278
 Red. masses --      5.4137                 3.0358                 1.6492
 Frc consts  --      0.3999                 0.2498                 0.1603
 IR Inten    --     41.1910                84.4558                50.8360

                     22                     23                     24
                      A                      A                      A
 Frequencies --    422.5876               452.5695               521.2471
 Red. masses --      2.8927                10.4587                 3.6798
 Frc consts  --      0.3044                 1.2621                 0.5891
 IR Inten    --      0.3793                 8.7338                12.0288

                     25                     26                     27
                      A                      A                      A
 Frequencies --    570.3107               611.1532               640.4704
 Red. masses --      4.0486                 3.5256                 6.3047
 Frc consts  --      0.7759                 0.7758                 1.5237
 IR Inten    --    161.2174                48.0911                16.3821

                     28                     29                     30
                      A                      A                      A
 Frequencies --    685.1620               716.9451               726.3014
 Red. masses --      3.5627                 2.2101                 1.7848
 Frc consts  --      0.9854                 0.6693                 0.5547
 IR Inten    --    114.0326                 6.7346               248.0140

                     31                     32                     33
                      A                      A                      A
 Frequencies --    775.8107               780.8546               839.7939
 Red. masses --      8.2395                 2.4757                 3.5649
 Frc consts  --      2.9219                 0.8894                 1.4813
 IR Inten    --     52.5959                39.1433                43.2769

                     34                     35                     36
                      A                      A                      A
 Frequencies --    867.3211               882.6102               952.4245
 Red. masses --      1.2568                 4.3629                 1.4691
 Frc consts  --      0.5570                 2.0025                 0.7852
 IR Inten    --      0.5000                90.8478                 0.4359

                     37                     38                     39
                      A                      A                      A
 Frequencies --   1005.3884              1012.7795              1019.8291
 Red. masses --      1.3505                 1.4842                 2.6239
 Frc consts  --      0.8043                 0.8969                 1.6079
 IR Inten    --      9.4598                 9.7161                13.4640

                     40                     41                     42
                      A                      A                      A
 Frequencies --   1026.6929              1028.8993              1065.3596
 Red. masses --      3.4215                 1.3586                 2.2078
 Frc consts  --      2.1249                 0.8474                 1.4764
 IR Inten    --      2.9113                 1.8675                 7.4886

                     43                     44                     45
                      A                      A                      A
 Frequencies --   1069.2994              1091.7518              1123.8386
 Red. masses --      2.7030                 1.5088                 1.6241
 Frc consts  --      1.8210                 1.0595                 1.2086
 IR Inten    --      3.3766               111.9848                14.1220

                     46                     47                     48
                      A                      A                      A
 Frequencies --   1143.4065              1156.3389              1186.0460
 Red. masses --      4.1477                 1.2916                 1.1301
 Frc consts  --      3.1949                 1.0175                 0.9367
 IR Inten    --     49.5423                 2.5864                 0.1677

                     49                     50                     51
                      A                      A                      A
 Frequencies --   1188.1370              1218.1707              1225.3000
 Red. masses --      1.7313                 1.1237                 3.3554
 Frc consts  --      1.4400                 0.9824                 2.9681
 IR Inten    --     28.2686                 1.3939                89.4125

                     52                     53                     54
                      A                      A                      A
 Frequencies --   1251.9227              1311.1674              1320.8445
 Red. masses --      1.4728                 2.6810                 4.2422
 Frc consts  --      1.3600                 2.7155                 4.3606
 IR Inten    --     29.9379               420.7832               135.3620

                     55                     56                     57
                      A                      A                      A
 Frequencies --   1344.6957              1361.5707              1417.3805
 Red. masses --      1.3145                 1.4443                 4.9566
 Frc consts  --      1.4004                 1.5776                 5.8669
 IR Inten    --     22.2300                 4.9508               617.8973

                     58                     59                     60
                      A                      A                      A
 Frequencies --   1457.6212              1469.1555              1476.0949
 Red. masses --      1.2010                 1.2366                 1.0602
 Frc consts  --      1.5034                 1.5726                 1.3611
 IR Inten    --     17.9074                24.6040                14.8152

                     61                     62                     63
                      A                      A                      A
 Frequencies --   1491.0807              1493.2715              1507.1967
 Red. masses --      2.1752                 1.0446                 1.0697
 Frc consts  --      2.8494                 1.3724                 1.4318
 IR Inten    --     43.2618                11.2129                15.1927

                     64                     65                     66
                      A                      A                      A
 Frequencies --   1508.3590              1544.4975              1570.6938
 Red. masses --      1.0530                 2.3327                 1.8547
 Frc consts  --      1.4115                 3.2786                 2.6959
 IR Inten    --      8.8356                27.2244               699.7657

                     67                     68                     69
                      A                      A                      A
 Frequencies --   1641.7157              1653.3240              1657.6668
 Red. masses --      1.2092                 4.5740                 5.6124
 Frc consts  --      1.9202                 7.3666                 9.0864
 IR Inten    --    125.1204               277.3487               181.5981

                     70                     71                     72
                      A                      A                      A
 Frequencies --   1675.5460              3044.9115              3083.4990
 Red. masses --      5.8666                 1.0389                 1.0335
 Frc consts  --      9.7040                 5.6752                 5.7894
 IR Inten    --      0.8107                87.1511                26.7532

                     73                     74                     75
                      A                      A                      A
 Frequencies --   3105.0800              3157.8940              3162.5823
 Red. masses --      1.1003                 1.1016                 1.1050
 Frc consts  --      6.2507                 6.4722                 6.5120
 IR Inten    --     44.9484                26.1003                 4.4780

                     76                     77                     78
                      A                      A                      A
 Frequencies --   3188.5363              3198.5228              3207.2318
 Red. masses --      1.1051                 1.0861                 1.0894
 Frc consts  --      6.6194                 6.5469                 6.6025
 IR Inten    --     12.3842                 0.3367                 5.8916

                     79                     80                     81
                      A                      A                      A
 Frequencies --   3216.6176              3224.2670              3243.3473
 Red. masses --      1.0935                 1.0977                 1.0925
 Frc consts  --      6.6662                 6.7234                 6.7709
 IR Inten    --     22.0203                20.7063                18.2110

                     82                     83                     84
                      A                      A                      A
 Frequencies --   3513.9451              3587.6018              3694.3063
 Red. masses --      1.0518                 1.0956                 1.0776
 Frc consts  --      7.6523                 8.3082                 8.6651
 IR Inten    --     54.7996                58.7924                82.3610

 - Thermochemistry -
 -------------------
 Temperature   298.150 Kelvin.  Pressure   1.00000 Atm.
 Atom     1 has atomic number  6 and mass  12.00000

 Molecular mass:   260.04832 amu.
 Principal axes and moments of inertia in atomic units:
                           1         2         3
     Eigenvalues --  3369.863794947.050846248.84067
           X            0.99920   0.03974   0.00330
           Y           -0.03944   0.99709  -0.06518
           Z           -0.00588   0.06500   0.99787
 This molecule is an asymmetric top.
 Rotational symmetry number  1.
 Warning -- assumption of classical behavior for rotation
           may cause significant error
 Rotational temperatures (Kelvin)      0.02570     0.01751     0.01386
 Rotational constants (GHZ):           0.53555     0.36481     0.28881
    1 imaginary frequencies ignored.
 Zero-point vibrational energy     626817.6 (Joules/Mol)
                                  149.81299 (Kcal/Mol)
 Warning -- explicit consideration of  25 degrees of freedom as
           vibrations may cause significant error
 Vibrational temperatures:     56.44    64.20    84.19   110.31   120.77
          (Kelvin)            175.83   179.32   204.47   229.15   252.45
                              297.47   310.27   340.02   393.03   407.32
                              434.52   473.43   509.45   537.73   584.47
                              608.01   651.15   749.96   820.55   879.31
                              921.49   985.80  1031.52  1044.99  1116.22
                             1123.48  1208.28  1247.88  1269.88  1370.33
                             1446.53  1457.16  1467.31  1477.18  1480.36
                             1532.81  1538.48  1570.79  1616.95  1645.11
                             1663.71  1706.46  1709.46  1752.68  1762.93
                             1801.24  1886.48  1900.40  1934.72  1959.00
                             2039.29  2097.19  2113.79  2123.77  2145.33
                             2148.48  2168.52  2170.19  2222.19  2259.88
                             2362.06  2378.76  2385.01  2410.74  4380.95
                             4436.47  4467.52  4543.51  4550.25  4587.59
                             4601.96  4614.49  4628.00  4639.00  4666.45
                             5055.78  5161.76  5315.28

 Zero-point correction=                           0.238742 (Hartree/Particle)
 Thermal correction to Energy=                    0.255650
 Thermal correction to Enthalpy=                  0.256594
 Thermal correction to Gibbs Free Energy=         0.193125
 Sum of electronic and zero-point Energies=          -1532.503772
 Sum of electronic and thermal Energies=             -1532.486865
 Sum of electronic and thermal Enthalpies=           -1532.485921
 Sum of electronic and thermal Free Energies=        -1532.549389

                     E (Thermal)             CV                S
                      KCal/Mol        Cal/Mol-Kelvin    Cal/Mol-Kelvin
 Total                  160.423             60.872            133.581
 Electronic               0.000              0.000              0.000
 Translational            0.889              2.981             42.567
 Rotational               0.889              2.981             33.010
 Vibrational            158.645             54.911             58.004
 Vibration     1          0.594              1.981              5.298
 Vibration     2          0.595              1.980              5.042
 Vibration     3          0.596              1.974              4.507
 Vibration     4          0.599              1.965              3.974
 Vibration     5          0.601              1.960              3.797
 Vibration     6          0.610              1.931              3.065
 Vibration     7          0.610              1.928              3.027
 Vibration     8          0.616              1.911              2.775
 Vibration     9          0.621              1.892              2.558
 Vibration    10          0.627              1.873              2.376
 Vibration    11          0.641              1.830              2.072
 Vibration    12          0.645              1.817              1.995
 Vibration    13          0.655              1.785              1.830
 Vibration    14          0.676              1.723              1.576
 Vibration    15          0.682              1.705              1.515
 Vibration    16          0.694              1.670              1.406
 Vibration    17          0.712              1.617              1.265
 Vibration    18          0.730              1.567              1.148
 Vibration    19          0.745              1.526              1.064
 Vibration    20          0.771              1.457              0.940
 Vibration    21          0.785              1.421              0.883
 Vibration    22          0.811              1.355              0.788
 Vibration    23          0.876              1.203              0.607
 Vibration    24          0.926              1.095              0.504
 Vibration    25          0.970              1.008              0.431

 Optimization completed.
    -- Stationary point found.
 Normal termination of Gaussian 16 at Fri Feb 26 12:42:57 2021.
