 Gaussian 16, Revision C.01,
 Gaussian 16:  ES64L-G16RevC.01  3-Jul-2019

 ----------------------------------------------------------------------
 # opt=(calcfc,ts,noeigen,maxcycles=100,maxstep=10) freq=noraman wb97xd
  scrf=(iefpcm,solvent=water) def2tzvp
 ----------------------------------------------------------------------

 ------------
 TS-802-4.out
 ------------
 Symbolic Z-matrix:
 Charge =  0 Multiplicity = 1

 SCF Done:  E(RwB97XD) =  -1248.80585693     A.U. after   15 cycles
 SCF Done:  E(RwB97XD) =  -1248.80889052     A.U. after   12 cycles
 SCF Done:  E(RwB97XD) =  -1248.81082822     A.U. after   12 cycles
 SCF Done:  E(RwB97XD) =  -1248.81188855     A.U. after   12 cycles
 SCF Done:  E(RwB97XD) =  -1248.81240618     A.U. after   12 cycles
 SCF Done:  E(RwB97XD) =  -1248.81258623     A.U. after   12 cycles
 SCF Done:  E(RwB97XD) =  -1248.81265561     A.U. after   12 cycles
 SCF Done:  E(RwB97XD) =  -1248.81268685     A.U. after   12 cycles
 SCF Done:  E(RwB97XD) =  -1248.81267219     A.U. after   12 cycles
 SCF Done:  E(RwB97XD) =  -1248.81253094     A.U. after   12 cycles
 SCF Done:  E(RwB97XD) =  -1248.81308392     A.U. after   10 cycles
 SCF Done:  E(RwB97XD) =  -1248.81308393     A.U. after    9 cycles
 SCF Done:  E(RwB97XD) =  -1248.81308468     A.U. after   10 cycles
 SCF Done:  E(RwB97XD) =  -1248.81308472     A.U. after    7 cycles
 SCF Done:  E(RwB97XD) =  -1248.81308528     A.U. after    8 cycles
 SCF Done:  E(RwB97XD) =  -1248.81308548     A.U. after    8 cycles
 SCF Done:  E(RwB97XD) =  -1248.81308551     A.U. after    7 cycles
 SCF Done:  E(RwB97XD) =  -1248.81308546     A.U. after    6 cycles
 SCF Done:  E(RwB97XD) =  -1248.81308531     A.U. after    6 cycles
 Optimization completed.
    -- Stationary point found.
 Normal termination of Gaussian 16 at Fri Jun 17 20:05:34 2022.

 ---------------------------------------------------------------------
 #N Geom=AllCheck Guess=TCheck SCRF=Check GenChk RwB97XD/def2TZVP Freq
 ---------------------------------------------------------------------

 Structure from the checkpoint file:  "/local/jobs/108804/Gau-2941723.chk"
 ------------
 TS-802-4.out
 ------------
 Charge =  0 Multiplicity = 1

                         Standard orientation:
 ---------------------------------------------------------------------
 Center     Atomic      Atomic             Coordinates (Angstroms)
 Number     Number       Type             X           Y           Z
 ---------------------------------------------------------------------
      1          6           0        0.567231   -0.367437   -0.439104
      2          6           0        0.267149   -1.172250   -1.575453
      3          8           0       -0.801697   -1.084265   -2.208927
      4          6           0       -0.474900    0.461890    0.045901
      5          6           0       -0.921973    3.199584   -1.089720
      6          1           0       -1.022040    3.736502   -2.033927
      7          1           0       -1.807501    3.376925   -0.484870
      8          1           0       -0.053806    3.576776   -0.555245
      9          7           0       -0.748921    1.766249   -1.332346
     10          1           0       -1.496806    1.368813   -1.891171
     11          1           0        0.109163    1.596145   -1.844359
     12         17           0       -0.045107    1.510342    1.415125
     13          6           0       -1.861547   -0.092518    0.266506
     14          6           0       -1.966568   -1.408660    0.708521
     15          6           0       -3.201886   -1.959087    1.007665
     16          6           0       -4.355339   -1.200089    0.877020
     17          6           0       -4.258355    0.116929    0.454675
     18          6           0       -3.020694    0.667730    0.161105
     19          1           0       -1.067632   -2.001609    0.810368
     20          1           0       -3.261271   -2.986583    1.343520
     21          1           0       -5.321872   -1.629432    1.107673
     22          1           0       -5.148734    0.724497    0.355723
     23          1           0       -2.979874    1.702393   -0.146452
     24          6           0        1.963009   -0.267352    0.067175
     25          6           0        2.321396   -0.817459    1.298639
     26          6           0        3.625590   -0.750113    1.763463
     27          6           0        4.606771   -0.132527    0.998960
     28          6           0        4.270766    0.415476   -0.230084
     29          6           0        2.961611    0.348406   -0.686551
     30          1           0        1.560639   -1.306198    1.895931
     31          1           0        3.879051   -1.185332    2.722394
     32          1           0        5.626807   -0.081377    1.358713
     33          1           0        5.028285    0.898440   -0.835094
     34          1           0        2.708948    0.778306   -1.649152
     35          6           0        1.306926   -2.163063   -2.062499
     36          1           0        1.977056   -1.672795   -2.772946
     37          1           0        1.918672   -2.563792   -1.255096
     38          1           0        0.798631   -2.973871   -2.582625
 ---------------------------------------------------------------------

 SCF Done:  E(RwB97XD) =  -1248.81308531     A.U. after    1 cycles

 The electronic state is 1-A.
 Alpha  occ. eigenvalues -- -101.70232 -19.19899 -14.49203 -10.41173 -10.34725
 Alpha  occ. eigenvalues --  -10.32169 -10.31294 -10.29700 -10.29651 -10.29408
 Alpha  occ. eigenvalues --  -10.29336 -10.29309 -10.29242 -10.28733 -10.28697
 Alpha  occ. eigenvalues --  -10.28642 -10.28475 -10.28395 -10.26795 -10.26076
 Alpha  occ. eigenvalues --   -9.58829  -7.33465  -7.32627  -7.32567  -1.10544
 Alpha  occ. eigenvalues --   -1.04828  -0.99146  -0.96631  -0.95657  -0.88842
 Alpha  occ. eigenvalues --   -0.86870  -0.85621  -0.84688  -0.82673  -0.81627
 Alpha  occ. eigenvalues --   -0.78921  -0.73674  -0.71110  -0.69999  -0.69017
 Alpha  occ. eigenvalues --   -0.67541  -0.64474  -0.62289  -0.60955  -0.59113
 Alpha  occ. eigenvalues --   -0.57397  -0.56887  -0.55716  -0.55318  -0.54198
 Alpha  occ. eigenvalues --   -0.53488  -0.53204  -0.52239  -0.51342  -0.50841
 Alpha  occ. eigenvalues --   -0.50372  -0.50188  -0.48822  -0.48133  -0.47220
 Alpha  occ. eigenvalues --   -0.46362  -0.46084  -0.45487  -0.44493  -0.43083
 Alpha  occ. eigenvalues --   -0.42754  -0.42447  -0.41876  -0.40211  -0.39501
 Alpha  occ. eigenvalues --   -0.34204  -0.34111  -0.33532  -0.33367  -0.30958
 Alpha  occ. eigenvalues --   -0.27252
 Alpha virt. eigenvalues --    0.02042   0.04564   0.04949   0.05215   0.05852
 Alpha virt. eigenvalues --    0.10026   0.10621   0.12575   0.12872   0.14100
 Alpha virt. eigenvalues --    0.14713   0.15011   0.15521   0.15799   0.17217

 Mulliken charges:
               1
     1  C   -0.334162
     2  C    0.280843
     3  O   -0.542056
     4  C    0.336848
     5  C   -0.279793
     6  H    0.158597
     7  H    0.151519
     8  H    0.158405
     9  N   -0.343788
    10  H    0.296855
    11  H    0.282770
    12  Cl  -0.093169
    13  C    0.139198
    14  C   -0.227140
    15  C   -0.148579
    16  C   -0.140935
    17  C   -0.161382
    18  C   -0.224494
    19  H    0.163096
    20  H    0.143544
    21  H    0.145829
    22  H    0.143825
    23  H    0.126587
    24  C    0.139419
    25  C   -0.209711
    26  C   -0.148942
    27  C   -0.133030
    28  C   -0.157716
    29  C   -0.253200
    30  H    0.145106
    31  H    0.137881
    32  H    0.142002
    33  H    0.137931
    34  H    0.147422
    35  C   -0.386534
    36  H    0.141451
    37  H    0.136662
    38  H    0.128843
 Sum of Mulliken charges =  -0.00000

 Dipole moment (field-independent basis, Debye):
    X=             -0.4835    Y=              5.1447    Z=             -0.3683  Tot=              5.1805
 Quadrupole moment (field-independent basis, Debye-Ang):
   XX=           -111.8652   YY=           -111.7848   ZZ=           -128.4566
   XY=             -5.0480   XZ=             -4.1862   YZ=            -17.7835

  Exact polarizability:     362.159      -0.946     303.835       7.129     -15.438     270.673
 Approx polarizability:     278.670       1.729     249.019       7.917     -16.668     232.379

 ******    1 imaginary frequencies (negative Signs) ******

                      1                      2                      3
                      A                      A                      A
 Frequencies --   -351.5463                30.1312                40.9727
 Red. masses --      6.0875                 4.1981                 3.6330
 Frc consts  --      0.4433                 0.0022                 0.0036
 IR Inten    --    704.8589                 1.6204                 0.9598

                      4                      5                      6
                      A                      A                      A
 Frequencies --     41.1338                67.6335                89.3050
 Red. masses --      4.3888                 4.5508                 3.7440
 Frc consts  --      0.0044                 0.0123                 0.0176
 IR Inten    --      0.8822                 1.0237                 0.3222

                      7                      8                      9
                      A                      A                      A
 Frequencies --     95.5400               100.5413               108.0471
 Red. masses --      2.1156                 2.5554                 1.2888
 Frc consts  --      0.0114                 0.0152                 0.0089
 IR Inten    --      3.4402                 3.1118                 1.6346

                     10                     11                     12
                      A                      A                      A
 Frequencies --    128.3938               141.6133               175.3663
 Red. masses --      3.5421                 2.9858                 4.1265
 Frc consts  --      0.0344                 0.0353                 0.0748
 IR Inten    --      8.1110                12.7807                 9.5077

                     13                     14                     15
                      A                      A                      A
 Frequencies --    193.4189               218.1071               242.4246
 Red. masses --      3.7922                 2.3037                 6.7554
 Frc consts  --      0.0836                 0.0646                 0.2339
 IR Inten    --      5.5411                 0.4219                 2.3405

                     16                     17                     18
                      A                      A                      A
 Frequencies --    253.7470               267.5900               298.3538
 Red. masses --      3.3808                 4.3823                 4.5147
 Frc consts  --      0.1283                 0.1849                 0.2368
 IR Inten    --      4.8590                 3.2641                 1.8454

                     19                     20                     21
                      A                      A                      A
 Frequencies --    330.5389               352.4234               393.6578
 Red. masses --      3.5544                 5.3211                 5.2245
 Frc consts  --      0.2288                 0.3894                 0.4770
 IR Inten    --     23.6227                31.7531                14.1636

                     22                     23                     24
                      A                      A                      A
 Frequencies --    422.8277               424.9131               448.2546
 Red. masses --      2.8954                 2.8714                 5.7254
 Frc consts  --      0.3050                 0.3055                 0.6778
 IR Inten    --      0.0979                 0.0937                29.6022

                     25                     26                     27
                      A                      A                      A
 Frequencies --    508.6739               525.0422               555.2286
 Red. masses --      3.6792                 3.7459                 3.7631
 Frc consts  --      0.5609                 0.6084                 0.6835
 IR Inten    --     11.3110                10.8394               111.2768

                     28                     29                     30
                      A                      A                      A
 Frequencies --    588.7155               614.9207               633.4688
 Red. masses --      3.6899                 3.7651                 5.6891
 Frc consts  --      0.7535                 0.8388                 1.3451
 IR Inten    --     74.9555                19.7102                10.4617

                     31                     32                     33
                      A                      A                      A
 Frequencies --    639.2957               676.7283               698.2958
 Red. masses --      6.3218                 2.4993                 5.4759
 Frc consts  --      1.5223                 0.6744                 1.5732
 IR Inten    --      5.4413                63.8910                30.6498

                     34                     35                     36
                      A                      A                      A
 Frequencies --    717.1851               725.9815               729.4491
 Red. masses --      1.8160                 1.7261                 1.6481
 Frc consts  --      0.5503                 0.5360                 0.5167
 IR Inten    --     93.3422                24.0637               110.2123

                     37                     38                     39
                      A                      A                      A
 Frequencies --    773.1665               790.4604               831.2078
 Red. masses --      2.7113                 2.1649                 3.1684
 Frc consts  --      0.9549                 0.7970                 1.2897
 IR Inten    --    160.1450                 9.6518                 9.7310

                     40                     41                     42
                      A                      A                      A
 Frequencies --    872.2063               878.3198               897.1438
 Red. masses --      1.2520                 1.2464                 3.9363
 Frc consts  --      0.5611                 0.5665                 1.8666
 IR Inten    --      0.4108                 0.8448                90.0478

                     43                     44                     45
                      A                      A                      A
 Frequencies --    956.2136               960.1452              1002.4264
 Red. masses --      1.4809                 1.4610                 2.1250
 Frc consts  --      0.7978                 0.7936                 1.2581
 IR Inten    --      5.5311                 0.5714                25.7521

                     46                     47                     48
                      A                      A                      A
 Frequencies --   1011.6659              1013.0466              1019.9804
 Red. masses --      1.3800                 1.3746                 1.6976
 Frc consts  --      0.8322                 0.8312                 1.0406
 IR Inten    --      0.6920                 0.7237                10.0134

                     49                     50                     51
                      A                      A                      A
 Frequencies --   1025.5564              1026.9694              1028.0734
 Red. masses --      4.5325                 1.6392                 2.9264
 Frc consts  --      2.8087                 1.0186                 1.8223
 IR Inten    --      2.2353                 0.4343                 0.3816

                     52                     53                     54
                      A                      A                      A
 Frequencies --   1031.4298              1040.0530              1047.2024
 Red. masses --      1.3284                 1.8880                 1.9259
 Frc consts  --      0.8326                 1.2033                 1.2444
 IR Inten    --      0.1230                 2.7215                17.4981

                     55                     56                     57
                      A                      A                      A
 Frequencies --   1060.8406              1065.1915              1069.2378
 Red. masses --      2.4765                 2.0374                 1.7971
 Frc consts  --      1.6420                 1.3620                 1.2105
 IR Inten    --     51.3725                18.9873                18.0011

                     58                     59                     60
                      A                      A                      A
 Frequencies --   1087.2546              1109.5500              1122.0843
 Red. masses --      1.6694                 1.5593                 1.5688
 Frc consts  --      1.1627                 1.1310                 1.1638
 IR Inten    --    138.7732                20.5950                27.0684

                     61                     62                     63
                      A                      A                      A
 Frequencies --   1169.5833              1180.9726              1184.8304
 Red. masses --      3.8822                 1.1328                 1.1299
 Frc consts  --      3.1289                 0.9309                 0.9345
 IR Inten    --    140.3112                 0.0309                 0.1973

                     64                     65                     66
                      A                      A                      A
 Frequencies --   1208.2538              1215.6777              1246.5350
 Red. masses --      1.1239                 1.1278                 2.1812
 Frc consts  --      0.9667                 0.9820                 1.9969
 IR Inten    --      0.1188                 8.7917                61.6276

                     67                     68                     69
                      A                      A                      A
 Frequencies --   1260.6389              1306.0359              1323.0883
 Red. masses --      1.8686                 4.5938                 4.4065
 Frc consts  --      1.7496                 4.6167                 4.5448
 IR Inten    --     27.8649                 5.4833                 2.9594

                     70                     71                     72
                      A                      A                      A
 Frequencies --   1342.5511              1350.2059              1358.4903
 Red. masses --      1.3341                 2.6867                 1.4726
 Frc consts  --      1.4168                 2.8858                 1.6012
 IR Inten    --      1.3909               630.5049                23.7285

                     73                     74                     75
                      A                      A                      A
 Frequencies --   1361.1231              1389.1590              1399.9525
 Red. masses --      1.4961                 2.0657                 2.9633
 Frc consts  --      1.6331                 2.3487                 3.4217
 IR Inten    --    102.6689               319.8701                79.6878

                     76                     77                     78
                      A                      A                      A
 Frequencies --   1462.7639              1466.2688              1472.2731
 Red. masses --      1.0916                 1.1726                 1.1001
 Frc consts  --      1.3762                 1.4854                 1.4049
 IR Inten    --     57.2544                 4.0438                36.2062

                     79                     80                     81
                      A                      A                      A
 Frequencies --   1486.7455              1491.3969              1492.2214
 Red. masses --      2.1756                 1.2045                 1.7199
 Frc consts  --      2.8333                 1.5785                 2.2564
 IR Inten    --      7.5556                21.4847                36.3308

                     82                     83                     84
                      A                      A                      A
 Frequencies --   1505.2336              1542.0287              1545.2205
 Red. masses --      1.0433                 2.2522                 2.4661
 Frc consts  --      1.3927                 3.1553                 3.4693
 IR Inten    --     18.4754                29.1843                21.5866

                     85                     86                     87
                      A                      A                      A
 Frequencies --   1616.5798              1644.2567              1654.5603
 Red. masses --      6.2564                 5.6355                 5.7899
 Frc consts  --      9.6332                 8.9768                 9.3386
 IR Inten    --    563.0597                 6.9054                11.2216

                     88                     89                     90
                      A                      A                      A
 Frequencies --   1661.5308              1672.1334              1674.1286
 Red. masses --      1.1587                 5.8983                 5.5671
 Frc consts  --      1.8846                 9.7168                 9.1930
 IR Inten    --    129.5644                 8.1419                 2.6421

                     91                     92                     93
                      A                      A                      A
 Frequencies --   3057.1473              3074.1564              3129.3089
 Red. masses --      1.0375                 1.0381                 1.0978
 Frc consts  --      5.7133                 5.7803                 6.3341
 IR Inten    --     14.7009                39.5169                19.4145

                     94                     95                     96
                      A                      A                      A
 Frequencies --   3156.4631              3157.4007              3184.7848
 Red. masses --      1.0994                 1.1046                 1.0968
 Frc consts  --      6.4536                 6.4878                 6.5544
 IR Inten    --     12.5633                30.5738                22.0051

                     97                     98                     99
                      A                      A                      A
 Frequencies --   3184.8033              3188.8856              3198.6092
 Red. masses --      1.0959                 1.0874                 1.0862
 Frc consts  --      6.5489                 6.5151                 6.5477
 IR Inten    --      5.8629                 2.9416                 0.0886

                    100                    101                    102
                      A                      A                      A
 Frequencies --   3199.0099              3206.5536              3207.6581
 Red. masses --      1.0910                 1.0950                 1.0899
 Frc consts  --      6.5780                 6.6333                 6.6072
 IR Inten    --     12.9205                49.6074                 8.9278

                    103                    104                    105
                      A                      A                      A
 Frequencies --   3218.0738              3218.1957              3225.3286
 Red. masses --      1.0935                 1.0987                 1.0968
 Frc consts  --      6.6718                 6.7045                 6.7226
 IR Inten    --     23.3269                18.2268                20.0294

                    106                    107                    108
                      A                      A                      A
 Frequencies --   3244.0130              3525.5655              3598.9785
 Red. masses --      1.0918                 1.0522                 1.0948
 Frc consts  --      6.7697                 7.7056                 8.3549
 IR Inten    --     10.8180                23.4182                55.3678

 - Thermochemistry -
 -------------------
 Temperature   298.150 Kelvin.  Pressure   1.00000 Atm.
 Atom     1 has atomic number  6 and mass  12.00000

 Molecular mass:   287.10769 amu.
 Principal axes and moments of inertia in atomic units:
                           1         2         3
     Eigenvalues --  3442.891178089.421608516.46441
           X            0.99996  -0.00898  -0.00178
           Y            0.00860   0.98778  -0.15561
           Z            0.00316   0.15558   0.98782
 This molecule is an asymmetric top.
 Rotational symmetry number  1.
 Warning -- assumption of classical behavior for rotation
           may cause significant error
 Rotational temperatures (Kelvin)      0.02516     0.01071     0.01017
 Rotational constants (GHZ):           0.52419     0.22310     0.21191
    1 imaginary frequencies ignored.
 Zero-point vibrational energy     818585.0 (Joules/Mol)
                                  195.64651 (Kcal/Mol)
 Warning -- explicit consideration of  28 degrees of freedom as
           vibrations may cause significant error
 Vibrational temperatures:     43.35    58.95    59.18    97.31   128.49
          (Kelvin)            137.46   144.66   155.46   184.73   203.75
                              252.31   278.29   313.81   348.79   365.09
                              385.00   429.26   475.57   507.06   566.39
                              608.35   611.36   644.94   731.87   755.42
                              798.85   847.03   884.73   911.42   919.80
                              973.66  1004.69  1031.87  1044.53  1049.51
                             1112.41  1137.30  1195.92  1254.91  1263.71
                             1290.79  1375.78  1381.43  1442.27  1455.56
                             1457.55  1467.52  1475.55  1477.58  1479.17
                             1484.00  1496.40  1506.69  1526.31  1532.57
                             1538.39  1564.32  1596.40  1614.43  1682.77
                             1699.16  1704.71  1738.41  1749.09  1793.49
                             1813.78  1879.09  1903.63  1931.63  1942.65
                             1954.56  1958.35  1998.69  2014.22  2104.59
                             2109.63  2118.27  2139.10  2145.79  2146.97
                             2165.70  2218.64  2223.23  2325.90  2365.72
                             2380.54  2390.57  2405.83  2408.70  4398.55
                             4423.03  4502.38  4541.45  4542.80  4582.20
                             4582.22  4588.10  4602.09  4602.66  4613.52
                             4615.10  4630.09  4630.27  4640.53  4667.41
                             5072.50  5178.13

 Zero-point correction=                           0.311783 (Hartree/Particle)
 Thermal correction to Energy=                    0.330748
 Thermal correction to Enthalpy=                  0.331692
 Thermal correction to Gibbs Free Energy=         0.263288
 Sum of electronic and zero-point Energies=          -1248.501303
 Sum of electronic and thermal Energies=             -1248.482337
 Sum of electronic and thermal Enthalpies=           -1248.481393
 Sum of electronic and thermal Free Energies=        -1248.549797

                     E (Thermal)             CV                S
                      KCal/Mol        Cal/Mol-Kelvin    Cal/Mol-Kelvin
 Total                  207.547             71.437            143.968
 Electronic               0.000              0.000              0.000
 Translational            0.889              2.981             42.862
 Rotational               0.889              2.981             33.827
 Vibrational            205.770             65.475             67.279
 Vibration     1          0.594              1.984              5.821
 Vibration     2          0.594              1.981              5.211
 Vibration     3          0.594              1.981              5.204
 Vibration     4          0.598              1.970              4.221
 Vibration     5          0.602              1.957              3.675
 Vibration     6          0.603              1.952              3.543
 Vibration     7          0.604              1.949              3.444
 Vibration     8          0.606              1.943              3.304
 Vibration     9          0.611              1.925              2.970
 Vibration    10          0.615              1.912              2.782
 Vibration    11          0.627              1.873              2.377
 Vibration    12          0.635              1.849              2.195
 Vibration    13          0.646              1.813              1.975
 Vibration    14          0.659              1.775              1.785
 Vibration    15          0.665              1.756              1.704
 Vibration    16          0.673              1.733              1.612
 Vibration    17          0.691              1.677              1.426
 Vibration    18          0.713              1.615              1.257
 Vibration    19          0.729              1.570              1.155
 Vibration    20          0.761              1.484              0.986
 Vibration    21          0.785              1.421              0.882
 Vibration    22          0.787              1.416              0.875
 Vibration    23          0.807              1.365              0.801
 Vibration    24          0.864              1.231              0.637
 Vibration    25          0.880              1.195              0.598
 Vibration    26          0.911              1.128              0.533
 Vibration    27          0.946              1.056              0.469
 Vibration    28          0.974              1.000              0.425

 Optimization completed.
    -- Stationary point found.
 Normal termination of Gaussian 16 at Fri Jun 17 21:35:43 2022.
