 Gaussian 16, Revision A.03,
 Gaussian 16:  ES64L-G16RevA.03 25-Dec-2016

 ----------------------------------------------------------------------
 # wB97XD def2tzvp, opt=(ts, noeigen, calcfc, maxcycles=70, maxstep=1),
  freq=noraman, scrf=(iefpcm, solvent=water)
 ----------------------------------------------------------------------

 ------------------------
 0_iteration/TS-875-0.out
 ------------------------
 Symbolic Z-matrix:
 Charge =  0 Multiplicity = 1

 SCF Done:  E(RwB97XD) =  -1262.39652992     A.U. after   15 cycles
 SCF Done:  E(RwB97XD) =  -1262.39648752     A.U. after   10 cycles
 SCF Done:  E(RwB97XD) =  -1262.39644946     A.U. after   10 cycles
 SCF Done:  E(RwB97XD) =  -1262.39641571     A.U. after   10 cycles
 SCF Done:  E(RwB97XD) =  -1262.39638637     A.U. after   10 cycles
 SCF Done:  E(RwB97XD) =  -1262.39636156     A.U. after   10 cycles
 SCF Done:  E(RwB97XD) =  -1262.39634150     A.U. after   10 cycles
 SCF Done:  E(RwB97XD) =  -1262.39632657     A.U. after   10 cycles
 SCF Done:  E(RwB97XD) =  -1262.39631747     A.U. after   10 cycles
 SCF Done:  E(RwB97XD) =  -1262.39631549     A.U. after   11 cycles
 SCF Done:  E(RwB97XD) =  -1262.39632044     A.U. after   11 cycles
 SCF Done:  E(RwB97XD) =  -1262.39632365     A.U. after   10 cycles
 SCF Done:  E(RwB97XD) =  -1262.39632091     A.U. after   10 cycles
 SCF Done:  E(RwB97XD) =  -1262.39632006     A.U. after   10 cycles
 SCF Done:  E(RwB97XD) =  -1262.39632002     A.U. after    7 cycles
 Optimization completed.
    -- Stationary point found.
 Normal termination of Gaussian 16 at Wed Feb 24 00:17:46 2021.

 ---------------------------------------------------------------------
 #N Geom=AllCheck Guess=TCheck SCRF=Check GenChk RwB97XD/def2TZVP Freq
 ---------------------------------------------------------------------

 Structure from the checkpoint file:  "/beegfs/scratch/user/q/tla25/Gau-52106.chk"
 ------------------------
 0_iteration/TS-875-0.out
 ------------------------
 Charge =  0 Multiplicity = 1

                         Standard orientation:
 ---------------------------------------------------------------------
 Center     Atomic      Atomic             Coordinates (Angstroms)
 Number     Number       Type             X           Y           Z
 ---------------------------------------------------------------------
      1          6           0        0.449270   -0.343076   -0.158946
      2          6           0        1.688918    0.286359   -0.574212
      3          8           0        1.705382    1.225498   -1.380552
      4          6           0       -0.750325    0.154048   -0.608223
      5          6           0       -0.552896    2.311910    1.144415
      6          1           0       -0.933003    2.895092    1.982546
      7          1           0        0.315970    1.739354    1.470120
      8          1           0       -0.249697    2.980184    0.341837
      9          7           0       -1.554172    1.380799    0.640096
     10          1           0       -1.941804    0.809423    1.382263
     11          1           0       -2.321276    1.852242    0.174767
     12         17           0       -2.145059   -0.904861   -0.805060
     13          1           0       -0.666984    0.869986   -1.413729
     14         17           0        0.469995   -1.619409    1.041696
     15          7           0        2.845921   -0.187563   -0.045845
     16          1           0        2.869352   -1.014257    0.521919
     17          1           0        3.708438    0.168470   -0.416098
 ---------------------------------------------------------------------

 SCF Done:  E(RwB97XD) =  -1262.39632002     A.U. after    1 cycles

 The electronic state is 1-A.
 Alpha  occ. eigenvalues -- -101.70365-101.69563 -19.20193 -14.48782 -14.44192
 Alpha  occ. eigenvalues --  -10.38995 -10.38765 -10.31711 -10.31298  -9.58944
 Alpha  occ. eigenvalues --   -9.58086  -7.33588  -7.32730  -7.32709  -7.32689
 Alpha  occ. eigenvalues --   -7.31889  -7.31857  -1.12974  -1.04485  -1.00243
 Alpha  occ. eigenvalues --   -0.98274  -0.94367  -0.83885  -0.79046  -0.73356
 Alpha  occ. eigenvalues --   -0.65065  -0.64238  -0.61833  -0.58283  -0.57460
 Alpha  occ. eigenvalues --   -0.55080  -0.52812  -0.51892  -0.50051  -0.48199
 Alpha  occ. eigenvalues --   -0.47626  -0.46896  -0.42740  -0.41379  -0.39834
 Alpha  occ. eigenvalues --   -0.38832  -0.35301  -0.34242  -0.27870
 Alpha virt. eigenvalues --    0.05233   0.08634   0.10252   0.12820   0.13776
 Alpha virt. eigenvalues --    0.15239   0.15736   0.17147   0.17959   0.18751
 Alpha virt. eigenvalues --    0.19587   0.20593   0.22627   0.23817   0.25864

 Mulliken charges:
               1
     1  C   -0.179400
     2  C    0.311390
     3  O   -0.540446
     4  C    0.000609
     5  C   -0.289846
     6  H    0.159688
     7  H    0.156061
     8  H    0.155935
     9  N   -0.341039
    10  H    0.284294
    11  H    0.292997
    12  Cl  -0.105649
    13  H    0.192739
    14  Cl  -0.166484
    15  N   -0.469544
    16  H    0.267338
    17  H    0.271358
 Sum of Mulliken charges =  -0.00000

 Dipole moment (field-independent basis, Debye):
    X=             -3.2422    Y=              2.8411    Z=              4.2736  Tot=              6.0701
 Quadrupole moment (field-independent basis, Debye-Ang):
   XX=            -55.4720   YY=            -65.7038   ZZ=            -70.3601
   XY=            -13.4867   XZ=              1.3846   YZ=              6.0728

  Exact polarizability: 158.934  -6.359 128.676  -0.478  -5.781 108.533
 Approx polarizability: 123.653  -3.365 109.687   0.574  -8.623  97.300

 ******    1 imaginary frequencies (negative Signs) ******

                      1                      2                      3
                      A                      A                      A
 Frequencies --   -362.8553                58.9610                75.9801
 Red. masses --      5.8222                 3.0414                 4.7133
 Frc consts  --      0.4517                 0.0062                 0.0160
 IR Inten    --    748.8205                 1.2101                11.5923

                      4                      5                      6
                      A                      A                      A
 Frequencies --     98.0696               120.7550               158.4053
 Red. masses --      3.8507                 2.1917                 3.8660
 Frc consts  --      0.0218                 0.0188                 0.0572
 IR Inten    --     26.1947                15.4019                11.9134

                      7                      8                      9
                      A                      A                      A
 Frequencies --    167.1156               184.4079               199.6897
 Red. masses --      1.9733                 1.2663                 6.0841
 Frc consts  --      0.0325                 0.0254                 0.1429
 IR Inten    --      3.9950               318.0649                28.6132

                     10                     11                     12
                      A                      A                      A
 Frequencies --    235.7626               298.4972               373.1698
 Red. masses --      4.4671                 4.7612                 8.3973
 Frc consts  --      0.1463                 0.2499                 0.6890
 IR Inten    --      6.5808                57.9537                20.1002

                     13                     14                     15
                      A                      A                      A
 Frequencies --    457.3791               461.5782               545.1672
 Red. masses --      3.9163                 5.2708                 1.2075
 Frc consts  --      0.4827                 0.6616                 0.2114
 IR Inten    --     68.1268                32.7589                 0.5944

                     16                     17                     18
                      A                      A                      A
 Frequencies --    562.6981               638.1234               728.5628
 Red. masses --      2.1668                 3.1313                 2.3409
 Frc consts  --      0.4042                 0.7513                 0.7321
 IR Inten    --     29.5406                69.0368                42.5350

                     19                     20                     21
                      A                      A                      A
 Frequencies --    776.4868               814.2299               998.2846
 Red. masses --      7.4141                 5.0084                 1.1055
 Frc consts  --      2.6338                 1.9563                 0.6491
 IR Inten    --     31.0630               152.1613                22.9642

                     22                     23                     24
                      A                      A                      A
 Frequencies --   1024.3683              1055.0972              1083.7307
 Red. masses --      1.1203                 2.9602                 4.9973
 Frc consts  --      0.6926                 1.9416                 3.4580
 IR Inten    --     74.9534                18.3213                41.1917

                     25                     26                     27
                      A                      A                      A
 Frequencies --   1093.2754              1136.4655              1213.7214
 Red. masses --      1.9780                 1.1040                 1.4048
 Frc consts  --      1.3929                 0.8401                 1.2193
 IR Inten    --     19.2313                61.6462                29.1460

                     28                     29                     30
                      A                      A                      A
 Frequencies --   1234.3665              1341.7117              1394.8757
 Red. masses --      1.3241                 1.3267                 4.3808
 Frc consts  --      1.1886                 1.4071                 5.0220
 IR Inten    --     46.5702                 0.9685               434.7081

                     31                     32                     33
                      A                      A                      A
 Frequencies --   1436.5652              1466.4630              1493.2947
 Red. masses --      1.9206                 2.0388                 1.0395
 Frc consts  --      2.3353                 2.5833                 1.3658
 IR Inten    --    630.3686               484.7529                19.6397

                     34                     35                     36
                      A                      A                      A
 Frequencies --   1497.4826              1608.5507              1643.1466
 Red. masses --      1.0442                 1.4295                 1.0904
 Frc consts  --      1.3796                 2.1793                 1.7345
 IR Inten    --     21.7614               279.9507                53.5816

                     37                     38                     39
                      A                      A                      A
 Frequencies --   1661.9962              3069.5132              3145.2633
 Red. masses --      4.6853                 1.0337                 1.1048
 Frc consts  --      7.6251                 5.7381                 6.4395
 IR Inten    --    579.8421                29.7105                10.6296

                     40                     41                     42
                      A                      A                      A
 Frequencies --   3173.1534              3229.7909              3524.6055
 Red. masses --      1.1052                 1.0900                 1.0504
 Frc consts  --      6.5563                 6.6991                 7.6885
 IR Inten    --     12.0749                 4.5875                59.4309

                     43                     44                     45
                      A                      A                      A
 Frequencies --   3608.8102              3631.8768              3759.2560
 Red. masses --      1.0968                 1.0451                 1.1053
 Frc consts  --      8.4162                 8.1224                 9.2029
 IR Inten    --     52.2287                93.6590                93.2827

 - Thermochemistry -
 -------------------
 Temperature   298.150 Kelvin.  Pressure   1.00000 Atm.
 Atom     1 has atomic number  6 and mass  12.00000

 Molecular mass:   170.00137 amu.
 Principal axes and moments of inertia in atomic units:
                           1         2         3
     Eigenvalues --  1409.637542050.566682524.83689
           X            0.99752  -0.06704  -0.02147
           Y            0.06851   0.99464   0.07747
           Z            0.01617  -0.07875   0.99676
 This molecule is an asymmetric top.
 Rotational symmetry number  1.
 Warning -- assumption of classical behavior for rotation
           may cause significant error
 Rotational temperatures (Kelvin)      0.06144     0.04224     0.03430
 Rotational constants (GHZ):           1.28029     0.88012     0.71480
    1 imaginary frequencies ignored.
 Zero-point vibrational energy     337829.6 (Joules/Mol)
                                   80.74322 (Kcal/Mol)
 Warning -- explicit consideration of  15 degrees of freedom as
           vibrations may cause significant error
 Vibrational temperatures:     84.83   109.32   141.10   173.74   227.91
          (Kelvin)            240.44   265.32   287.31   339.21   429.47
                              536.91   658.07   664.11   784.37   809.60
                              918.12  1048.24  1117.19  1171.50  1436.31
                             1473.84  1518.05  1559.25  1572.98  1635.12
                             1746.27  1775.98  1930.42  2006.92  2066.90
                             2109.91  2148.52  2154.54  2314.35  2364.12
                             2391.24  4416.34  4525.33  4565.46  4646.95
                             5071.12  5192.27  5225.46  5408.73

 Zero-point correction=                           0.128673 (Hartree/Particle)
 Thermal correction to Energy=                    0.139732
 Thermal correction to Enthalpy=                  0.140676
 Thermal correction to Gibbs Free Energy=         0.090865
 Sum of electronic and zero-point Energies=          -1262.267648
 Sum of electronic and thermal Energies=             -1262.256588
 Sum of electronic and thermal Enthalpies=           -1262.255644
 Sum of electronic and thermal Free Energies=        -1262.305455

                     E (Thermal)             CV                S
                      KCal/Mol        Cal/Mol-Kelvin    Cal/Mol-Kelvin
 Total                   87.683             37.204            104.836
 Electronic               0.000              0.000              0.000
 Translational            0.889              2.981             41.300
 Rotational               0.889              2.981             30.368
 Vibrational             85.906             31.242             33.168
 Vibration     1          0.596              1.974              4.492
 Vibration     2          0.599              1.965              3.992
 Vibration     3          0.604              1.951              3.492
 Vibration     4          0.609              1.932              3.088
 Vibration     5          0.621              1.893              2.569
 Vibration     6          0.624              1.883              2.468
 Vibration     7          0.631              1.861              2.283
 Vibration     8          0.638              1.840              2.136
 Vibration     9          0.655              1.786              1.835
 Vibration    10          0.692              1.677              1.425
 Vibration    11          0.745              1.527              1.067
 Vibration    12          0.816              1.345              0.774
 Vibration    13          0.819              1.335              0.762
 Vibration    14          0.900              1.150              0.554
 Vibration    15          0.918              1.112              0.518

 Optimization completed.
    -- Stationary point found.
 Normal termination of Gaussian 16 at Wed Feb 24 00:27:08 2021.
