 Gaussian 16, Revision A.03,
 Gaussian 16:  ES64L-G16RevA.03 25-Dec-2016

 ----------------------------------------------------------------------
 # wB97XD def2tzvp, opt=(ts, noeigen, calcfc, maxcycles=70, maxstep=8),
  freq=noraman, scrf=(iefpcm, solvent=water)
 ----------------------------------------------------------------------

 ------------------------
 1_iteration/TS-849-1.out
 ------------------------
 Symbolic Z-matrix:
 Charge =  0 Multiplicity = 1

 SCF Done:  E(RwB97XD) =  -747.395267925     A.U. after   14 cycles
 SCF Done:  E(RwB97XD) =  -747.395267946     A.U. after    7 cycles
 Optimization completed.
    -- Stationary point found.
 Normal termination of Gaussian 16 at Thu Feb 25 08:29:04 2021.

 ---------------------------------------------------------------------
 #N Geom=AllCheck Guess=TCheck SCRF=Check GenChk RwB97XD/def2TZVP Freq
 ---------------------------------------------------------------------

 Structure from the checkpoint file:  "/beegfs/scratch/user/q/tla25/Gau-37969.chk"
 ------------------------
 1_iteration/TS-849-1.out
 ------------------------
 Charge =  0 Multiplicity = 1

                         Standard orientation:
 ---------------------------------------------------------------------
 Center     Atomic      Atomic             Coordinates (Angstroms)
 Number     Number       Type             X           Y           Z
 ---------------------------------------------------------------------
      1          6           0        1.212238    0.367978   -0.268343
      2          6           0        2.289720   -0.346550    0.310578
      3          8           0        3.443150   -0.402982   -0.115780
      4          6           0       -0.033631    0.294209    0.315919
      5          6           0       -2.363088   -1.533557    0.188307
      6          1           0       -3.043475   -0.694075    0.059925
      7          1           0       -2.815559   -2.427423   -0.243685
      8          1           0       -2.203160   -1.698250    1.253250
      9          7           0       -1.084817   -1.211384   -0.440243
     10          1           0       -0.423597   -1.975345   -0.362541
     11          1           0       -1.188823   -0.991318   -1.424371
     12         17           0       -1.186568    1.579810    0.003739
     13          1           0       -0.136433   -0.096784    1.320248
     14          1           0        1.362166    0.924229   -1.184946
     15          1           0        2.037626   -0.886734    1.247740
 ---------------------------------------------------------------------

 SCF Done:  E(RwB97XD) =  -747.395267946     A.U. after    1 cycles

 The electronic state is 1-A.
 Alpha  occ. eigenvalues -- -101.70526 -19.21180 -14.47872 -10.39413 -10.35013
 Alpha  occ. eigenvalues --  -10.31722 -10.26242  -9.59109  -7.33748  -7.32902
 Alpha  occ. eigenvalues --   -7.32853  -1.11376  -1.03615  -0.97644  -0.86819
 Alpha  occ. eigenvalues --   -0.78759  -0.71989  -0.66183  -0.62688  -0.57945
 Alpha  occ. eigenvalues --   -0.55611  -0.54496  -0.54043  -0.49165  -0.48037
 Alpha  occ. eigenvalues --   -0.48031  -0.47457  -0.45332  -0.40653  -0.38844
 Alpha  occ. eigenvalues --   -0.32679  -0.29133
 Alpha virt. eigenvalues --    0.03429   0.09346   0.10907   0.13173   0.13756
 Alpha virt. eigenvalues --    0.15075   0.17670   0.18271   0.18870   0.19967
 Alpha virt. eigenvalues --    0.20786   0.21965   0.23678   0.26754   0.27039

 Mulliken charges:
               1
     1  C   -0.262892
     2  C    0.123190
     3  O   -0.501294
     4  C   -0.025572
     5  C   -0.265583
     6  H    0.146723
     7  H    0.150872
     8  H    0.148927
     9  N   -0.363915
    10  H    0.277832
    11  H    0.280832
    12  Cl  -0.102326
    13  H    0.191899
    14  H    0.137653
    15  H    0.063653
 Sum of Mulliken charges =  -0.00000

 Dipole moment (field-independent basis, Debye):
    X=             -9.4264    Y=             -3.9486    Z=              0.2112  Tot=             10.2222
 Quadrupole moment (field-independent basis, Debye-Ang):
   XX=            -72.8393   YY=            -45.8300   ZZ=            -45.7961
   XY=              7.0876   XZ=              3.3073   YZ=             -0.2475

  Exact polarizability: 165.686   0.219  97.064  -0.927  -3.671  79.175
 Approx polarizability: 120.887  -2.088  80.575  -2.037  -2.725  70.122

 ******    1 imaginary frequencies (negative Signs) ******

                      1                      2                      3
                      A                      A                      A
 Frequencies --   -350.6770                56.1544                95.5211
 Red. masses --      6.1211                 2.0643                 4.6486
 Frc consts  --      0.4435                 0.0038                 0.0250
 IR Inten    --    939.3745                 4.2071                 5.9031

                      4                      5                      6
                      A                      A                      A
 Frequencies --    154.2598               178.6524               203.0136
 Red. masses --      1.5568                 2.5920                 3.5588
 Frc consts  --      0.0218                 0.0487                 0.0864
 IR Inten    --      5.1867                 1.9613                19.0315

                      7                      8                      9
                      A                      A                      A
 Frequencies --    237.4499               304.0672               382.5021
 Red. masses --      2.0772                 3.4248                 6.2545
 Frc consts  --      0.0690                 0.1866                 0.5392
 IR Inten    --      7.2003                 1.5847                13.4047

                     10                     11                     12
                      A                      A                      A
 Frequencies --    426.8082               569.9215               644.6565
 Red. masses --      4.1808                 3.1165                 1.5293
 Frc consts  --      0.4487                 0.5964                 0.3745
 IR Inten    --    163.0701                35.3557                 6.9780

                     13                     14                     15
                      A                      A                      A
 Frequencies --    781.9736               825.4681              1000.5384
 Red. masses --      1.3146                 4.2468                 1.0774
 Frc consts  --      0.4736                 1.7050                 0.6354
 IR Inten    --    185.8651               227.5829                10.9133

                     16                     17                     18
                      A                      A                      A
 Frequencies --   1021.7842              1036.0647              1068.6565
 Red. masses --      1.1054                 1.5926                 4.6616
 Frc consts  --      0.6800                 1.0072                 3.1366
 IR Inten    --    109.0952                22.6545               182.6680

                     19                     20                     21
                      A                      A                      A
 Frequencies --   1137.6943              1199.1816              1216.1792
 Red. masses --      1.1343                 1.7868                 1.4410
 Frc consts  --      0.8650                 1.5139                 1.2558
 IR Inten    --     89.4734               277.2797                30.7053

                     22                     23                     24
                      A                      A                      A
 Frequencies --   1230.2513              1285.8729              1341.3243
 Red. masses --      1.2481                 2.2187                 1.3275
 Frc consts  --      1.1129                 2.1614                 1.4072
 IR Inten    --     10.2732                68.0743                 1.3580

                     25                     26                     27
                      A                      A                      A
 Frequencies --   1408.0071              1462.8713              1490.4483
 Red. masses --      1.4342                 1.1804                 1.0398
 Frc consts  --      1.6753                 1.4883                 1.3610
 IR Inten    --    458.9374                 8.6155                15.4235

                     28                     29                     30
                      A                      A                      A
 Frequencies --   1505.4053              1514.8527              1643.2411
 Red. masses --      1.1010                 2.3071                 1.0902
 Frc consts  --      1.4701                 3.1193                 1.7344
 IR Inten    --    105.2854               392.3430                78.2292

                     31                     32                     33
                      A                      A                      A
 Frequencies --   1680.3218              2885.7515              3063.5749
 Red. masses --      6.6416                 1.0802                 1.0350
 Frc consts  --     11.0487                 5.2998                 5.7232
 IR Inten    --   1251.0230               165.7750                52.2190

                     34                     35                     36
                      A                      A                      A
 Frequencies --   3139.0463              3165.5730              3201.6195
 Red. masses --      1.1035                 1.1050                 1.0932
 Frc consts  --      6.4065                 6.5238                 6.6023
 IR Inten    --     17.5573                14.5564                 4.1762

                     37                     38                     39
                      A                      A                      A
 Frequencies --   3206.5315              3522.2070              3608.2376
 Red. masses --      1.0896                 1.0506                 1.0967
 Frc consts  --      6.6009                 7.6793                 8.4127
 IR Inten    --      5.3363                23.0060                40.0810

 - Thermochemistry -
 -------------------
 Temperature   298.150 Kelvin.  Pressure   1.00000 Atm.
 Atom     1 has atomic number  6 and mass  12.00000

 Molecular mass:   121.02944 amu.
 Principal axes and moments of inertia in atomic units:
                           1         2         3
     Eigenvalues --   614.658631602.166282108.90410
           X            0.99826   0.05892   0.00024
           Y           -0.05891   0.99818  -0.01293
           Z           -0.00101   0.01289   0.99992
 This molecule is an asymmetric top.
 Rotational symmetry number  1.
 Warning -- assumption of classical behavior for rotation
           may cause significant error
 Rotational temperatures (Kelvin)      0.14091     0.05406     0.04107
 Rotational constants (GHZ):           2.93617     1.12644     0.85577
    1 imaginary frequencies ignored.
 Zero-point vibrational energy     316386.5 (Joules/Mol)
                                   75.61818 (Kcal/Mol)
 Warning -- explicit consideration of  10 degrees of freedom as
           vibrations may cause significant error
 Vibrational temperatures:     80.79   137.43   221.95   257.04   292.09
          (Kelvin)            341.64   437.48   550.34   614.08   819.99
                              927.52  1125.09  1187.66  1439.55  1470.12
                             1490.67  1537.56  1636.89  1725.35  1749.81
                             1770.06  1850.08  1929.87  2025.81  2104.75
                             2144.42  2165.94  2179.54  2364.26  2417.61
                             4151.95  4407.80  4516.39  4554.55  4606.42
                             4613.48  5067.67  5191.45

 Zero-point correction=                           0.120505 (Hartree/Particle)
 Thermal correction to Energy=                    0.128943
 Thermal correction to Enthalpy=                  0.129887
 Thermal correction to Gibbs Free Energy=         0.086344
 Sum of electronic and zero-point Energies=           -747.274763
 Sum of electronic and thermal Energies=              -747.266325
 Sum of electronic and thermal Enthalpies=            -747.265380
 Sum of electronic and thermal Free Energies=         -747.308924

                     E (Thermal)             CV                S
                      KCal/Mol        Cal/Mol-Kelvin    Cal/Mol-Kelvin
 Total                   80.913             28.178             91.644
 Electronic               0.000              0.000              0.000
 Translational            0.889              2.981             40.287
 Rotational               0.889              2.981             29.120
 Vibrational             79.136             22.217             22.237
 Vibration     1          0.596              1.975              4.588
 Vibration     2          0.603              1.952              3.544
 Vibration     3          0.620              1.898              2.619
 Vibration     4          0.629              1.869              2.342
 Vibration     5          0.639              1.836              2.106
 Vibration     6          0.656              1.783              1.822
 Vibration     7          0.695              1.666              1.394
 Vibration     8          0.752              1.508              1.029
 Vibration     9          0.788              1.412              0.869
 Vibration    10          0.926              1.096              0.504

 Optimization completed.
    -- Stationary point found.
 Normal termination of Gaussian 16 at Thu Feb 25 08:33:45 2021.
