 Gaussian 16, Revision A.03,
 Gaussian 16:  ES64L-G16RevA.03 25-Dec-2016

 ----------------------------------------------------------------------
 # wB97XD def2tzvp, opt=(ts, noeigen, calcfc, maxcycles=70, maxstep=8),
  freq=noraman, scrf=(iefpcm, solvent=water)
 ----------------------------------------------------------------------

 ------------------------
 1_iteration/TS-825-1.out
 ------------------------
 Symbolic Z-matrix:
 Charge =  0 Multiplicity = 1

 SCF Done:  E(RwB97XD) =  -3552.05866625     A.U. after   16 cycles
 SCF Done:  E(RwB97XD) =  -3552.05866763     A.U. after   11 cycles
 SCF Done:  E(RwB97XD) =  -3552.05866860     A.U. after   10 cycles
 SCF Done:  E(RwB97XD) =  -3552.05866847     A.U. after    7 cycles
 Optimization completed.
    -- Stationary point found.
 Normal termination of Gaussian 16 at Thu Feb 25 19:58:09 2021.

 ---------------------------------------------------------------------
 #N Geom=AllCheck Guess=TCheck SCRF=Check GenChk RwB97XD/def2TZVP Freq
 ---------------------------------------------------------------------

 Structure from the checkpoint file:  "/beegfs/scratch/user/q/tla25/Gau-120715.chk"
 ------------------------
 1_iteration/TS-825-1.out
 ------------------------
 Charge =  0 Multiplicity = 1

                         Standard orientation:
 ---------------------------------------------------------------------
 Center     Atomic      Atomic             Coordinates (Angstroms)
 Number     Number       Type             X           Y           Z
 ---------------------------------------------------------------------
      1          6           0        0.833698    0.474508   -0.351244
      2          6           0        0.504797    1.809923   -0.719357
      3          8           0        1.296422    2.700514   -1.007795
      4          6           0       -0.099959   -0.504008   -0.008727
      5          6           0        0.545149    0.233761    2.731042
      6          1           0        1.375281   -0.024490    3.385480
      7          1           0        0.864695    1.047118    2.071758
      8          1           0       -0.292459    0.572678    3.334652
      9          7           0        0.155723   -0.907468    1.908675
     10          1           0        0.888222   -1.604875    1.871698
     11          1           0       -0.688819   -1.362148    2.234333
     12         17           0        0.248978   -2.176350   -0.529859
     13          6           0       -1.563524   -0.178611   -0.081575
     14          6           0       -2.125469    0.737515    0.804557
     15          6           0       -3.465423    1.075345    0.715468
     16          6           0       -4.263122    0.507408   -0.266222
     17          6           0       -3.709632   -0.398789   -1.157528
     18          6           0       -2.370757   -0.743895   -1.064509
     19          1           0       -1.515309    1.206184    1.562994
     20          1           0       -3.883335    1.786865    1.415457
     21          1           0       -5.310562    0.770555   -0.336551
     22          1           0       -4.321072   -0.844132   -1.931486
     23          1           0       -1.953908   -1.451848   -1.766704
     24         35           0        2.685885    0.044652   -0.313698
     25          1           0       -0.577337    2.008440   -0.764386
 ---------------------------------------------------------------------

 SCF Done:  E(RwB97XD) =  -3552.05866847     A.U. after    1 cycles

 The electronic state is 1-A.
 Alpha  occ. eigenvalues -- -483.12845-101.70791 -62.67673 -56.46783 -56.46442
 Alpha  occ. eigenvalues --  -56.46429 -19.22107 -14.49338 -10.42246 -10.36082
 Alpha  occ. eigenvalues --  -10.32358 -10.32332 -10.32177 -10.30467 -10.30299
 Alpha  occ. eigenvalues --  -10.29973 -10.29906 -10.29853  -9.59396  -8.81784
 Alpha  occ. eigenvalues --   -7.34042  -7.33181  -7.33131  -6.63916  -6.62821
 Alpha  occ. eigenvalues --   -6.62781  -2.74312  -2.73993  -2.73962  -2.73076
 Alpha  occ. eigenvalues --   -2.73076  -1.12607  -1.05211  -1.00042  -0.96893
 Alpha  occ. eigenvalues --   -0.91633  -0.88202  -0.86288  -0.82714  -0.79665
 Alpha  occ. eigenvalues --   -0.74883  -0.71723  -0.70302  -0.65244  -0.63280
 Alpha  occ. eigenvalues --   -0.60740  -0.58807  -0.58222  -0.56647  -0.56490
 Alpha  occ. eigenvalues --   -0.53706  -0.53440  -0.51959  -0.50721  -0.48960
 Alpha  occ. eigenvalues --   -0.48301  -0.47875  -0.47586  -0.46186  -0.44174
 Alpha  occ. eigenvalues --   -0.43745  -0.41762  -0.39659  -0.39255  -0.37248
 Alpha  occ. eigenvalues --   -0.35243  -0.34690  -0.32950  -0.29367
 Alpha virt. eigenvalues --    0.00198   0.04231   0.04596   0.07225   0.09973
 Alpha virt. eigenvalues --    0.10799   0.12836   0.13357   0.14239   0.14487
 Alpha virt. eigenvalues --    0.16121   0.16780   0.17788   0.18077   0.20103

 Mulliken charges:
               1
     1  C   -0.196397
     2  C    0.105048
     3  O   -0.469499
     4  C    0.303222
     5  C   -0.315880
     6  H    0.168375
     7  H    0.154209
     8  H    0.170185
     9  N   -0.347071
    10  H    0.287014
    11  H    0.300401
    12  Cl  -0.085018
    13  C    0.055362
    14  C   -0.261311
    15  C   -0.131312
    16  C   -0.141113
    17  C   -0.133096
    18  C   -0.237002
    19  H    0.178220
    20  H    0.149607
    21  H    0.150310
    22  H    0.149697
    23  H    0.151130
    24  Br  -0.120813
    25  H    0.115732
 Sum of Mulliken charges =  -0.00000

 Dipole moment (field-independent basis, Debye):
    X=             -6.8923    Y=             -5.4672    Z=              7.4016  Tot=             11.4969
 Quadrupole moment (field-independent basis, Debye-Ang):
   XX=            -97.7069   YY=           -113.9095   ZZ=            -88.6694
   XY=            -11.3718   XZ=              7.0385   YZ=              4.9889

  Exact polarizability: 271.580  -0.682 224.392   0.850   3.388 204.212
 Approx polarizability: 208.874  -1.239 192.447   1.081   6.318 174.366

 ******    1 imaginary frequencies (negative Signs) ******

                      1                      2                      3
                      A                      A                      A
 Frequencies --   -310.7230                23.9179                63.8361
 Red. masses --      6.1437                 4.5071                 7.5088
 Frc consts  --      0.3495                 0.0015                 0.0180
 IR Inten    --    628.6126                 1.0480                 2.3041

                      4                      5                      6
                      A                      A                      A
 Frequencies --     79.2523                97.7913               133.5661
 Red. masses --      5.2996                 4.3464                 2.1887
 Frc consts  --      0.0196                 0.0245                 0.0230
 IR Inten    --      0.9676                 3.4860                10.5834

                      7                      8                      9
                      A                      A                      A
 Frequencies --    148.5208               167.9958               192.5194
 Red. masses --      6.4868                 4.2466                 2.3019
 Frc consts  --      0.0843                 0.0706                 0.0503
 IR Inten    --      2.4100                 1.2115                 5.3260

                     10                     11                     12
                      A                      A                      A
 Frequencies --    206.3425               221.7792               253.1046
 Red. masses --      5.9051                 2.1590                 6.4444
 Frc consts  --      0.1481                 0.0626                 0.2432
 IR Inten    --      7.1500                 3.0763                 1.1737

                     13                     14                     15
                      A                      A                      A
 Frequencies --    287.8428               304.0301               333.4412
 Red. masses --      3.8440                 3.6285                 3.8024
 Frc consts  --      0.1876                 0.1976                 0.2491
 IR Inten    --      3.8707                 6.1773                65.7864

                     16                     17                     18
                      A                      A                      A
 Frequencies --    369.4483               414.1752               423.8144
 Red. masses --      4.9564                 7.5004                 2.9785
 Frc consts  --      0.3986                 0.7581                 0.3152
 IR Inten    --     21.6857                 5.3621                 0.9961

                     19                     20                     21
                      A                      A                      A
 Frequencies --    498.4356               558.7383               601.8182
 Red. masses --      4.3357                 3.3704                 4.5700
 Frc consts  --      0.6346                 0.6199                 0.9752
 IR Inten    --     21.8705                80.1370               131.8735

                     22                     23                     24
                      A                      A                      A
 Frequencies --    618.4242               637.6635               671.6529
 Red. masses --      2.4194                 6.2576                 3.3263
 Frc consts  --      0.5452                 1.4991                 0.8841
 IR Inten    --     72.9585                12.7477                41.1149

                     25                     26                     27
                      A                      A                      A
 Frequencies --    724.8377               772.6954               827.5250
 Red. masses --      1.7082                 2.6422                 3.6540
 Frc consts  --      0.5288                 0.9295                 1.4743
 IR Inten    --     64.9625               194.1387                45.9569

                     28                     29                     30
                      A                      A                      A
 Frequencies --    877.5809               900.1067               970.3325
 Red. masses --      1.2452                 5.8104                 1.4277
 Frc consts  --      0.5650                 2.7736                 0.7920
 IR Inten    --      0.2357                81.2027                 0.5061

                     31                     32                     33
                      A                      A                      A
 Frequencies --   1018.1597              1020.1593              1027.7307
 Red. masses --      1.4262                 1.6010                 4.6325
 Frc consts  --      0.8711                 0.9817                 2.8829
 IR Inten    --      0.2516                 2.4622                 2.2368

                     34                     35                     36
                      A                      A                      A
 Frequencies --   1035.2387              1038.2102              1058.4716
 Red. masses --      1.1199                 1.3187                 1.8992
 Frc consts  --      0.7072                 0.8375                 1.2536
 IR Inten    --     23.1249                 1.1590               127.1828

                     37                     38                     39
                      A                      A                      A
 Frequencies --   1068.5268              1089.4075              1129.0597
 Red. masses --      2.2157                 1.7770                 1.5865
 Frc consts  --      1.4905                 1.2426                 1.1916
 IR Inten    --     12.8270                 7.2693                 4.8957

                     40                     41                     42
                      A                      A                      A
 Frequencies --   1188.2206              1188.6209              1197.3969
 Red. masses --      1.2402                 1.9684                 1.9791
 Frc consts  --      1.0316                 1.6385                 1.6718
 IR Inten    --      6.2233                18.8516                24.1885

                     43                     44                     45
                      A                      A                      A
 Frequencies --   1224.8716              1252.5847              1317.3309
 Red. masses --      1.1370                 4.1472                 1.4750
 Frc consts  --      1.0050                 3.8337                 1.5081
 IR Inten    --      9.5512               472.0799                12.4673

                     46                     47                     48
                      A                      A                      A
 Frequencies --   1325.7926              1370.9408              1390.9975
 Red. masses --      3.4094                 1.4573                 2.3460
 Frc consts  --      3.5308                 1.6138                 2.6744
 IR Inten    --      1.7666                25.0674               527.1304

                     49                     50                     51
                      A                      A                      A
 Frequencies --   1459.2784              1475.6030              1493.6996
 Red. masses --      1.3004                 1.6466                 2.2894
 Frc consts  --      1.6315                 2.1124                 3.0095
 IR Inten    --     83.8984               133.9576                69.9260

                     52                     53                     54
                      A                      A                      A
 Frequencies --   1503.7490              1506.4359              1547.7739
 Red. masses --      1.0457                 1.0360                 2.2391
 Frc consts  --      1.3932                 1.3852                 3.1603
 IR Inten    --      8.3299                16.6293                17.8396

                     55                     56                     57
                      A                      A                      A
 Frequencies --   1641.7079              1653.2218              1674.6427
 Red. masses --      1.0871                 5.6386                 5.8141
 Frc consts  --      1.7263                 9.0800                 9.6068
 IR Inten    --     73.5871                 8.1879                 9.6032

                     58                     59                     60
                      A                      A                      A
 Frequencies --   1680.3945              3003.2226              3044.5484
 Red. masses --      8.6706                 1.0830                 1.0447
 Frc consts  --     14.4251                 5.7549                 5.7055
 IR Inten    --   1012.9362                84.5982                20.4913

                     61                     62                     63
                      A                      A                      A
 Frequencies --   3132.2014              3177.4588              3203.8872
 Red. masses --      1.0907                 1.1065                 1.0868
 Frc consts  --      6.3048                 6.5819                 6.5728
 IR Inten    --     11.2451                11.8280                 0.2391

                     64                     65                     66
                      A                      A                      A
 Frequencies --   3214.0873              3224.2613              3237.1208
 Red. masses --      1.0907                 1.0954                 1.0941
 Frc consts  --      6.6383                 6.7096                 6.7548
 IR Inten    --     11.1339                19.8137                 5.7165

                     67                     68                     69
                      A                      A                      A
 Frequencies --   3246.4669              3538.1586              3620.0807
 Red. masses --      1.0926                 1.0513                 1.0968
 Frc consts  --      6.7848                 7.7539                 8.4686
 IR Inten    --      3.8083                77.7523                61.3071

 - Thermochemistry -
 -------------------
 Temperature   298.150 Kelvin.  Pressure   1.00000 Atm.
 Atom     1 has atomic number  6 and mass  12.00000

 Molecular mass:   274.97125 amu.
 Principal axes and moments of inertia in atomic units:
                           1         2         3
     Eigenvalues --  2368.854155831.201226249.18106
           X            0.99984  -0.00917   0.01562
           Y            0.00866   0.99944   0.03241
           Z           -0.01591  -0.03227   0.99935
 This molecule is an asymmetric top.
 Rotational symmetry number  1.
 Warning -- assumption of classical behavior for rotation
           may cause significant error
 Rotational temperatures (Kelvin)      0.03656     0.01485     0.01386
 Rotational constants (GHZ):           0.76186     0.30950     0.28880
    1 imaginary frequencies ignored.
 Zero-point vibrational energy     506025.8 (Joules/Mol)
                                  120.94307 (Kcal/Mol)
 Warning -- explicit consideration of  21 degrees of freedom as
           vibrations may cause significant error
 Vibrational temperatures:     34.41    91.85   114.03   140.70   192.17
          (Kelvin)            213.69   241.71   276.99   296.88   319.09
                              364.16   414.14   437.43   479.75   531.55
                              595.91   609.77   717.14   803.90   865.88
                              889.77   917.46   966.36  1042.88  1111.74
                             1190.62  1262.64  1295.05  1396.09  1464.90
                             1467.78  1478.68  1489.48  1493.75  1522.90
                             1537.37  1567.41  1624.47  1709.58  1710.16
                             1722.79  1762.32  1802.19  1895.35  1907.52
                             1972.48  2001.34  2099.58  2123.06  2149.10
                             2163.56  2167.43  2226.90  2362.05  2378.62
                             2409.44  2417.71  4320.97  4380.43  4506.54
                             4571.65  4609.68  4624.35  4638.99  4657.49
                             4670.94  5090.62  5208.49

 Zero-point correction=                           0.192735 (Hartree/Particle)
 Thermal correction to Energy=                    0.206823
 Thermal correction to Enthalpy=                  0.207767
 Thermal correction to Gibbs Free Energy=         0.150041
 Sum of electronic and zero-point Energies=          -3551.865933
 Sum of electronic and thermal Energies=             -3551.851846
 Sum of electronic and thermal Enthalpies=           -3551.850902
 Sum of electronic and thermal Free Energies=        -3551.908628

                     E (Thermal)             CV                S
                      KCal/Mol        Cal/Mol-Kelvin    Cal/Mol-Kelvin
 Total                  129.783             50.938            121.494
 Electronic               0.000              0.000              0.000
 Translational            0.889              2.981             42.733
 Rotational               0.889              2.981             32.823
 Vibrational            128.006             44.976             45.938
 Vibration     1          0.593              1.985              6.279
 Vibration     2          0.597              1.972              4.335
 Vibration     3          0.600              1.963              3.909
 Vibration     4          0.603              1.951              3.498
 Vibration     5          0.613              1.920              2.894
 Vibration     6          0.618              1.904              2.691
 Vibration     7          0.625              1.882              2.458
 Vibration     8          0.634              1.850              2.203
 Vibration     9          0.641              1.831              2.076
 Vibration    10          0.648              1.808              1.945
 Vibration    11          0.664              1.758              1.709
 Vibration    12          0.685              1.696              1.487
 Vibration    13          0.695              1.666              1.395
 Vibration    14          0.715              1.609              1.243
 Vibration    15          0.742              1.535              1.082
 Vibration    16          0.778              1.439              0.912
 Vibration    17          0.786              1.418              0.879
 Vibration    18          0.854              1.253              0.662
 Vibration    19          0.914              1.121              0.526
 Vibration    20          0.960              1.028              0.447
 Vibration    21          0.978              0.993              0.419

 Optimization completed.
    -- Stationary point found.
 Normal termination of Gaussian 16 at Thu Feb 25 20:45:51 2021.
