 Gaussian 16, Revision A.03,
 Gaussian 16:  ES64L-G16RevA.03 25-Dec-2016

 ----------------------------------------------------------------------
 # wB97XD def2tzvp, opt=(ts, noeigen, calcfc, maxcycles=70, maxstep=1),
  freq=noraman, scrf=(iefpcm, solvent=water)
 ----------------------------------------------------------------------

 ------------------------
 0_iteration/TS-852-0.out
 ------------------------
 Symbolic Z-matrix:
 Charge =  0 Multiplicity = 1

 SCF Done:  E(RwB97XD) =  -861.956648513     A.U. after   14 cycles
 SCF Done:  E(RwB97XD) =  -861.956609393     A.U. after   10 cycles
 SCF Done:  E(RwB97XD) =  -861.956572731     A.U. after   10 cycles
 SCF Done:  E(RwB97XD) =  -861.956538552     A.U. after   10 cycles
 SCF Done:  E(RwB97XD) =  -861.956506882     A.U. after   10 cycles
 SCF Done:  E(RwB97XD) =  -861.956477762     A.U. after   10 cycles
 SCF Done:  E(RwB97XD) =  -861.956451247     A.U. after   10 cycles
 SCF Done:  E(RwB97XD) =  -861.956427420     A.U. after   10 cycles
 SCF Done:  E(RwB97XD) =  -861.956406380     A.U. after   10 cycles
 SCF Done:  E(RwB97XD) =  -861.956388277     A.U. after   10 cycles
 SCF Done:  E(RwB97XD) =  -861.959763078     A.U. after   10 cycles
 SCF Done:  E(RwB97XD) =  -861.959794926     A.U. after   10 cycles
 SCF Done:  E(RwB97XD) =  -861.959819937     A.U. after   10 cycles
 SCF Done:  E(RwB97XD) =  -861.959834297     A.U. after   10 cycles
 SCF Done:  E(RwB97XD) =  -861.959841591     A.U. after   10 cycles
 SCF Done:  E(RwB97XD) =  -861.959841964     A.U. after   10 cycles
 SCF Done:  E(RwB97XD) =  -861.959841908     A.U. after    9 cycles
 SCF Done:  E(RwB97XD) =  -861.959839939     A.U. after   10 cycles
 SCF Done:  E(RwB97XD) =  -861.959842334     A.U. after   10 cycles
 Optimization completed.
    -- Stationary point found.
 Normal termination of Gaussian 16 at Wed Feb 24 04:39:59 2021.

 ---------------------------------------------------------------------
 #N Geom=AllCheck Guess=TCheck SCRF=Check GenChk RwB97XD/def2TZVP Freq
 ---------------------------------------------------------------------

 Structure from the checkpoint file:  "/beegfs/scratch/user/q/tla25/Gau-9601.chk"
 ------------------------
 0_iteration/TS-852-0.out
 ------------------------
 Charge =  0 Multiplicity = 1

                         Standard orientation:
 ---------------------------------------------------------------------
 Center     Atomic      Atomic             Coordinates (Angstroms)
 Number     Number       Type             X           Y           Z
 ---------------------------------------------------------------------
      1          6           0       -0.092449   -0.596883   -0.392667
      2          6           0       -1.352978   -0.217456    0.163490
      3          8           0       -1.551894    0.334881    1.238089
      4          6           0        1.059935   -0.324601    0.310234
      5          6           0        0.870252    2.403271   -0.242340
      6          1           0        1.262023    3.305883   -0.710356
      7          1           0        0.018710    2.039603   -0.818713
      8          1           0        0.539888    2.630027    0.768883
      9          7           0        1.870707    1.345091   -0.193481
     10          1           0        2.280668    1.177154   -1.105364
     11          1           0        2.621799    1.554644    0.454364
     12         17           0        2.474616   -1.346301    0.021862
     13          1           0        0.973911   -0.051759    1.353510
     14          1           0       -0.059099   -1.064876   -1.365195
     15          8           0       -2.385410   -0.558120   -0.649460
     16          6           0       -3.688443   -0.238161   -0.183081
     17          1           0       -4.373203   -0.575752   -0.957371
     18          1           0       -3.908252   -0.751048    0.753957
     19          1           0       -3.799338    0.836500   -0.033861
 ---------------------------------------------------------------------

 SCF Done:  E(RwB97XD) =  -861.959842334     A.U. after    1 cycles

 The electronic state is 1-A.
 Alpha  occ. eigenvalues -- -101.69976 -19.27950 -19.21066 -14.48571 -10.39521
 Alpha  occ. eigenvalues --  -10.38638 -10.32484 -10.31549 -10.25530  -9.58564
 Alpha  occ. eigenvalues --   -7.33194  -7.32354  -7.32318  -1.19181  -1.09654
 Alpha  occ. eigenvalues --   -1.04214  -0.96853  -0.86696  -0.80951  -0.78855
 Alpha  occ. eigenvalues --   -0.70733  -0.64638  -0.62876  -0.60010  -0.57291
 Alpha  occ. eigenvalues --   -0.56480  -0.56178  -0.54095  -0.52282  -0.49998
 Alpha  occ. eigenvalues --   -0.48143  -0.47257  -0.47209  -0.46205  -0.43286
 Alpha  occ. eigenvalues --   -0.40229  -0.38682  -0.37878  -0.35235  -0.28488
 Alpha virt. eigenvalues --    0.05659   0.09322   0.11214   0.13093   0.14930
 Alpha virt. eigenvalues --    0.15672   0.16503   0.17072   0.18373   0.18807
 Alpha virt. eigenvalues --    0.19489   0.20443   0.21081   0.21659   0.23127

 Mulliken charges:
               1
     1  C   -0.460981
     2  C    0.430384
     3  O   -0.516353
     4  C    0.050050
     5  C   -0.282854
     6  H    0.157419
     7  H    0.148495
     8  H    0.153378
     9  N   -0.332623
    10  H    0.279336
    11  H    0.289665
    12  Cl  -0.126476
    13  H    0.182226
    14  H    0.139534
    15  O   -0.311153
    16  C   -0.185586
    17  H    0.136837
    18  H    0.124814
    19  H    0.123885
 Sum of Mulliken charges =  -0.00000

 Dipole moment (field-independent basis, Debye):
    X=              4.2707    Y=              4.7475    Z=             -2.0764  Tot=              6.7148
 Quadrupole moment (field-independent basis, Debye-Ang):
   XX=            -50.5874   YY=            -56.8782   ZZ=            -63.5222
   XY=              9.8694   XZ=              2.5516   YZ=             -2.2763

  Exact polarizability: 164.814   4.135 119.224  -0.884   4.435  99.700
 Approx polarizability: 120.920   1.559  97.604  -0.089   5.887  91.480

 ******    1 imaginary frequencies (negative Signs) ******

                      1                      2                      3
                      A                      A                      A
 Frequencies --   -362.3308                60.1800                78.4182
 Red. masses --      5.9949                 3.6712                 2.7209
 Frc consts  --      0.4637                 0.0078                 0.0099
 IR Inten    --    831.7382                 5.9324                 2.0460

                      4                      5                      6
                      A                      A                      A
 Frequencies --     88.0141               126.0804               150.3351
 Red. masses --      2.7502                 2.7677                 2.7700
 Frc consts  --      0.0126                 0.0259                 0.0369
 IR Inten    --     11.0425                 8.5174                 3.9386

                      7                      8                      9
                      A                      A                      A
 Frequencies --    168.8731               173.4325               210.1391
 Red. masses --      1.5589                 1.1651                 4.9343
 Frc consts  --      0.0262                 0.0206                 0.1284
 IR Inten    --      2.9622                 3.2256                 3.0338

                     10                     11                     12
                      A                      A                      A
 Frequencies --    272.3746               324.4757               345.4940
 Red. masses --      3.9637                 3.9273                 8.2133
 Frc consts  --      0.1733                 0.2436                 0.5776
 IR Inten    --     19.6690                31.1042                36.5368

                     13                     14                     15
                      A                      A                      A
 Frequencies --    413.9350               469.6165               683.5195
 Red. masses --      2.5040                 3.5548                 1.4699
 Frc consts  --      0.2528                 0.4619                 0.4046
 IR Inten    --     62.9576                 5.7752                36.2593

                     16                     17                     18
                      A                      A                      A
 Frequencies --    705.3902               714.9623               792.8545
 Red. masses --      1.8218                 2.8701                 4.6163
 Frc consts  --      0.5341                 0.8644                 1.7098
 IR Inten    --     67.9440                69.8051               176.7232

                     19                     20                     21
                      A                      A                      A
 Frequencies --    800.8101               967.0031               998.4194
 Red. masses --      8.0570                 3.9058                 1.1009
 Frc consts  --      3.0442                 2.1519                 0.6466
 IR Inten    --    116.2638                21.0704                31.5033

                     22                     23                     24
                      A                      A                      A
 Frequencies --   1028.0776              1082.4330              1087.8049
 Red. masses --      1.1159                 4.9698                 4.3330
 Frc consts  --      0.6949                 3.4308                 3.0209
 IR Inten    --     79.7892                62.5617                71.3502

                     25                     26                     27
                      A                      A                      A
 Frequencies --   1158.6802              1181.7898              1183.2906
 Red. masses --      1.1489                 1.7577                 1.2833
 Frc consts  --      0.9088                 1.4463                 1.0587
 IR Inten    --    156.7815               534.4049                 2.4158

                     28                     29                     30
                      A                      A                      A
 Frequencies --   1217.3144              1217.6824              1259.2953
 Red. masses --      1.4044                 1.5181                 1.3270
 Frc consts  --      1.2262                 1.3262                 1.2399
 IR Inten    --     26.7603                61.1264               159.7072

                     31                     32                     33
                      A                      A                      A
 Frequencies --   1311.9398              1343.3606              1448.1169
 Red. masses --      3.1465                 1.3360                 1.2417
 Frc consts  --      3.1909                 1.4205                 1.5342
 IR Inten    --    101.9046                 2.2432               164.5745

                     34                     35                     36
                      A                      A                      A
 Frequencies --   1474.1428              1482.6766              1486.8426
 Red. masses --      1.3157                 1.0474                 1.0401
 Frc consts  --      1.6846                 1.3567                 1.3548
 IR Inten    --     79.8303                14.7006                 9.9811

                     37                     38                     39
                      A                      A                      A
 Frequencies --   1491.6834              1500.7368              1506.1657
 Red. masses --      1.2381                 1.0382                 1.8501
 Frc consts  --      1.6231                 1.3777                 2.4728
 IR Inten    --    398.4311                23.5802               649.7406

                     40                     41                     42
                      A                      A                      A
 Frequencies --   1643.4353              1694.9187              3058.9344
 Red. masses --      1.0895                10.4687                 1.0310
 Frc consts  --      1.7338                17.7191                 5.6841
 IR Inten    --     63.3000               631.3828                62.1889

                     43                     44                     45
                      A                      A                      A
 Frequencies --   3066.6568              3132.4091              3143.0447
 Red. masses --      1.0334                 1.1065                 1.1045
 Frc consts  --      5.7258                 6.3965                 6.4285
 IR Inten    --     32.6283                42.8568                 9.8515

                     46                     47                     48
                      A                      A                      A
 Frequencies --   3167.6762              3169.2640              3213.1723
 Red. masses --      1.1049                 1.1056                 1.0922
 Frc consts  --      6.5321                 6.5425                 6.6437
 IR Inten    --     27.5179                14.0159                 2.3228

                     49                     50                     51
                      A                      A                      A
 Frequencies --   3232.8336              3522.6038              3608.4812
 Red. masses --      1.0900                 1.0503                 1.0967
 Frc consts  --      6.7117                 7.6790                 8.4134
 IR Inten    --      1.6853                48.9370                46.5080

 - Thermochemistry -
 -------------------
 Temperature   298.150 Kelvin.  Pressure   1.00000 Atm.
 Atom     1 has atomic number  6 and mass  12.00000

 Molecular mass:   151.04001 amu.
 Principal axes and moments of inertia in atomic units:
                           1         2         3
     Eigenvalues --   870.136722534.761473086.00475
           X            0.99931   0.03720   0.00131
           Y           -0.03719   0.99927  -0.00838
           Z           -0.00162   0.00832   0.99996
 This molecule is an asymmetric top.
 Rotational symmetry number  1.
 Warning -- assumption of classical behavior for rotation
           may cause significant error
 Rotational temperatures (Kelvin)      0.09954     0.03417     0.02807
 Rotational constants (GHZ):           2.07409     0.71200     0.58481
    1 imaginary frequencies ignored.
 Zero-point vibrational energy     404695.4 (Joules/Mol)
                                   96.72453 (Kcal/Mol)
 Warning -- explicit consideration of  13 degrees of freedom as
           vibrations may cause significant error
 Vibrational temperatures:     86.59   112.83   126.63   181.40   216.30
          (Kelvin)            242.97   249.53   302.34   391.89   466.85
                              497.09   595.56   675.67   983.43  1014.90
                             1028.67  1140.74  1152.19  1391.30  1436.50
                             1479.17  1557.38  1565.11  1667.08  1700.33
                             1702.49  1751.44  1751.97  1811.85  1887.59
                             1932.80  2083.52  2120.96  2133.24  2139.23
                             2146.20  2159.23  2167.04  2364.54  2438.61
                             4401.12  4412.24  4506.84  4522.14  4557.58
                             4559.86  4623.04  4651.33  5068.24  5191.80

 Zero-point correction=                           0.154140 (Hartree/Particle)
 Thermal correction to Energy=                    0.164988
 Thermal correction to Enthalpy=                  0.165932
 Thermal correction to Gibbs Free Energy=         0.116639
 Sum of electronic and zero-point Energies=           -861.805702
 Sum of electronic and thermal Energies=              -861.794854
 Sum of electronic and thermal Enthalpies=            -861.793910
 Sum of electronic and thermal Free Energies=         -861.843204

                     E (Thermal)             CV                S
                      KCal/Mol        Cal/Mol-Kelvin    Cal/Mol-Kelvin
 Total                  103.531             36.611            103.747
 Electronic               0.000              0.000              0.000
 Translational            0.889              2.981             40.947
 Rotational               0.889              2.981             30.299
 Vibrational            101.754             30.649             32.501
 Vibration     1          0.597              1.973              4.451
 Vibration     2          0.600              1.964              3.930
 Vibration     3          0.601              1.958              3.704
 Vibration     4          0.611              1.927              3.005
 Vibration     5          0.618              1.902              2.668
 Vibration     6          0.625              1.881              2.448
 Vibration     7          0.627              1.875              2.398
 Vibration     8          0.642              1.825              2.042
 Vibration     9          0.675              1.724              1.581
 Vibration    10          0.709              1.627              1.287
 Vibration    11          0.724              1.584              1.187
 Vibration    12          0.778              1.440              0.913
 Vibration    13          0.827              1.317              0.739

 Optimization completed.
    -- Stationary point found.
 Normal termination of Gaussian 16 at Wed Feb 24 04:48:50 2021.
