 Gaussian 16, Revision A.03,
 Gaussian 16:  ES64L-G16RevA.03 25-Dec-2016

 ----------------------------------------------------------------------
 # wB97XD def2tzvp, opt=(ts, noeigen, calcfc, maxcycles=70, maxstep=5),
  freq=noraman, scrf=(iefpcm, solvent=water)
 ----------------------------------------------------------------------

 ------------------------
 2_iteration/TS-838-2.out
 ------------------------
 Symbolic Z-matrix:
 Charge =  0 Multiplicity = 1

 SCF Done:  E(RwB97XD) =  -1572.04253859     A.U. after   15 cycles
 SCF Done:  E(RwB97XD) =  -1572.04253857     A.U. after    7 cycles
 Optimization completed.
    -- Stationary point found.
 Normal termination of Gaussian 16 at Fri Feb 26 11:52:51 2021.

 ---------------------------------------------------------------------
 #N Geom=AllCheck Guess=TCheck SCRF=Check GenChk RwB97XD/def2TZVP Freq
 ---------------------------------------------------------------------

 Structure from the checkpoint file:  "/beegfs/scratch/user/q/tla25/Gau-72890.chk"
 ------------------------
 2_iteration/TS-838-2.out
 ------------------------
 Charge =  0 Multiplicity = 1

                         Standard orientation:
 ---------------------------------------------------------------------
 Center     Atomic      Atomic             Coordinates (Angstroms)
 Number     Number       Type             X           Y           Z
 ---------------------------------------------------------------------
      1          6           0        0.942462   -0.465847   -0.079803
      2          6           0        1.306413    0.799804    0.563779
      3          8           0        0.644823    1.283646    1.488620
      4          6           0       -0.366384   -0.910245   -0.196757
      5          6           0       -0.407595   -1.713167    2.463537
      6          1           0       -0.319546   -2.557999    3.144914
      7          1           0        0.536379   -1.173424    2.417134
      8          1           0       -1.178353   -1.034160    2.817439
      9          7           0       -0.731941   -2.171940    1.113425
     10          1           0       -0.095492   -2.910794    0.832389
     11          1           0       -1.669914   -2.551591    1.038795
     12         17           0       -0.686896   -2.068223   -1.584025
     13          6           0       -1.471327    0.110551   -0.174654
     14          6           0       -1.346436    1.199549   -1.037769
     15          6           0       -2.330363    2.169178   -1.104680
     16          6           0       -3.468714    2.063745   -0.317516
     17          6           0       -3.612033    0.974607    0.525321
     18          6           0       -2.624343    0.001635    0.591890
     19          1           0       -0.464770    1.282322   -1.659686
     20          1           0       -2.208018    3.008935   -1.776753
     21          1           0       -4.240098    2.821440   -0.366765
     22          1           0       -4.497422    0.873634    1.139695
     23          1           0       -2.784879   -0.830969    1.259854
     24         17           0        2.231781   -1.632116   -0.364032
     25          7           0        2.427588    1.434957    0.116886
     26          6           0        2.961661    1.293234   -1.221677
     27          6           0        2.935551    2.561204    0.869064
     28          1           0        2.304943    0.677134   -1.829566
     29          1           0        3.029859    2.281063   -1.685286
     30          1           0        3.959039    0.846509   -1.213620
     31          1           0        2.717520    2.430329    1.925587
     32          1           0        4.015933    2.622035    0.729682
     33          1           0        2.490303    3.505516    0.537611
 ---------------------------------------------------------------------

 SCF Done:  E(RwB97XD) =  -1572.04253857     A.U. after    1 cycles

 The electronic state is 1-A.
 Alpha  occ. eigenvalues -- -101.69323-101.68947 -19.20210 -14.50211 -14.45452
 Alpha  occ. eigenvalues --  -10.41011 -10.38156 -10.31875 -10.31703 -10.30639
 Alpha  occ. eigenvalues --  -10.30628 -10.30309 -10.29980 -10.29548 -10.29504
 Alpha  occ. eigenvalues --  -10.29420 -10.29362  -9.57917  -9.57467  -7.32535
 Alpha  occ. eigenvalues --   -7.32092  -7.31711  -7.31678  -7.31267  -7.31242
 Alpha  occ. eigenvalues --   -1.13175  -1.05960  -1.02938  -0.99004  -0.96537
 Alpha  occ. eigenvalues --   -0.93531  -0.87613  -0.85829  -0.82676  -0.81282
 Alpha  occ. eigenvalues --   -0.79618  -0.79018  -0.72202  -0.71149  -0.67936
 Alpha  occ. eigenvalues --   -0.65487  -0.62417  -0.60879  -0.59230  -0.57910
 Alpha  occ. eigenvalues --   -0.57153  -0.56177  -0.55754  -0.54538  -0.53180
 Alpha  occ. eigenvalues --   -0.52879  -0.51424  -0.51383  -0.48677  -0.48418
 Alpha  occ. eigenvalues --   -0.48182  -0.47902  -0.47362  -0.47131  -0.45944
 Alpha  occ. eigenvalues --   -0.45363  -0.44212  -0.43291  -0.42041  -0.40606
 Alpha  occ. eigenvalues --   -0.39525  -0.38856  -0.35203  -0.34251  -0.32847
 Alpha  occ. eigenvalues --   -0.31532  -0.26899
 Alpha virt. eigenvalues --    0.02497   0.04632   0.06706   0.07687   0.10344
 Alpha virt. eigenvalues --    0.11725   0.12458   0.13727   0.14724   0.15389
 Alpha virt. eigenvalues --    0.16059   0.16187   0.17081   0.17483   0.18329

 Mulliken charges:
               1
     1  C   -0.295088
     2  C    0.285788
     3  O   -0.514358
     4  C    0.231042
     5  C   -0.281673
     6  H    0.161938
     7  H    0.157861
     8  H    0.151831
     9  N   -0.305773
    10  H    0.285179
    11  H    0.292258
    12  Cl  -0.156253
    13  C    0.212844
    14  C   -0.275621
    15  C   -0.139341
    16  C   -0.146949
    17  C   -0.161128
    18  C   -0.225307
    19  H    0.162511
    20  H    0.144411
    21  H    0.146141
    22  H    0.145825
    23  H    0.141218
    24  Cl  -0.171847
    25  N   -0.094739
    26  C   -0.305181
    27  C   -0.293439
    28  H    0.159312
    29  H    0.136584
    30  H    0.141227
    31  H    0.138423
    32  H    0.138642
    33  H    0.133662
 Sum of Mulliken charges =  -0.00000

 Dipole moment (field-independent basis, Debye):
    X=             -2.3998    Y=             -2.4006    Z=              1.7025  Tot=              3.7974
 Quadrupole moment (field-independent basis, Debye-Ang):
   XX=           -102.8102   YY=           -101.9867   ZZ=           -114.1813
   XY=              8.2004   XZ=             -7.5444   YZ=            -18.7561

  Exact polarizability: 285.957   0.042 269.912 -27.360  -9.433 226.994
 Approx polarizability: 225.400  -2.540 218.768 -23.353  -7.407 197.261

 ******    1 imaginary frequencies (negative Signs) ******

                      1                      2                      3
                      A                      A                      A
 Frequencies --   -353.1589                29.1394                41.6634
 Red. masses --      5.5980                 3.5634                 4.6124
 Frc consts  --      0.4114                 0.0018                 0.0047
 IR Inten    --    617.3251                 0.2303                 4.4273

                      4                      5                      6
                      A                      A                      A
 Frequencies --     60.1277                76.9860               104.6897
 Red. masses --      5.5083                 4.6021                 3.7723
 Frc consts  --      0.0117                 0.0161                 0.0244
 IR Inten    --      3.4525                 5.3971                 0.5426

                      7                      8                      9
                      A                      A                      A
 Frequencies --    124.4188               131.0650               139.6943
 Red. masses --      1.4293                 3.7176                 5.7643
 Frc consts  --      0.0130                 0.0376                 0.0663
 IR Inten    --      0.5050                 5.9431                15.4591

                     10                     11                     12
                      A                      A                      A
 Frequencies --    162.1767               166.5961               179.1817
 Red. masses --      1.6098                 1.3988                 2.8225
 Frc consts  --      0.0249                 0.0229                 0.0534
 IR Inten    --      2.3733                 6.4805                 1.1903

                     13                     14                     15
                      A                      A                      A
 Frequencies --    192.6547               224.5876               226.0259
 Red. masses --      3.9346                 3.8530                 4.0404
 Frc consts  --      0.0860                 0.1145                 0.1216
 IR Inten    --      6.3486                16.3653                 1.2142

                     16                     17                     18
                      A                      A                      A
 Frequencies --    242.8493               265.3455               280.3200
 Red. masses --      2.2491                 3.4548                 2.8005
 Frc consts  --      0.0782                 0.1433                 0.1297
 IR Inten    --      0.9962                 6.5356                11.5576

                     19                     20                     21
                      A                      A                      A
 Frequencies --    293.5926               326.8099               351.7338
 Red. masses --      3.6382                 5.1094                 5.1317
 Frc consts  --      0.1848                 0.3215                 0.3741
 IR Inten    --     10.3319                13.6166                34.0643

                     22                     23                     24
                      A                      A                      A
 Frequencies --    373.3843               421.5309               428.5164
 Red. masses --      5.0673                 2.9410                 3.1361
 Frc consts  --      0.4162                 0.3079                 0.3393
 IR Inten    --     17.0120                 2.2841                 5.2419

                     25                     26                     27
                      A                      A                      A
 Frequencies --    491.0416               526.9092               574.8423
 Red. masses --      5.2010                 3.6462                 4.6763
 Frc consts  --      0.7389                 0.5964                 0.9104
 IR Inten    --     32.7149                15.0459               194.2865

                     28                     29                     30
                      A                      A                      A
 Frequencies --    609.8003               640.0533               663.0936
 Red. masses --      3.3101                 6.3889                 6.0837
 Frc consts  --      0.7252                 1.5421                 1.5760
 IR Inten    --     37.1514                12.4104                73.7196

                     31                     32                     33
                      A                      A                      A
 Frequencies --    695.9456               719.2910               739.8404
 Red. masses --      3.0644                 1.8319                 2.0311
 Frc consts  --      0.8745                 0.5584                 0.6550
 IR Inten    --     33.8297                30.4699               289.7354

                     34                     35                     36
                      A                      A                      A
 Frequencies --    775.4031               806.2606               868.4699
 Red. masses --      9.1011                 2.4483                 1.2558
 Frc consts  --      3.2240                 0.9377                 0.5581
 IR Inten    --     82.9551                 3.7177                 0.4479

                     37                     38                     39
                      A                      A                      A
 Frequencies --    875.1888               935.0831               960.4530
 Red. masses --      4.7444                 2.9416                 1.7365
 Frc consts  --      2.1411                 1.5154                 0.9438
 IR Inten    --     78.8456                44.5859                 8.9884

                     40                     41                     42
                      A                      A                      A
 Frequencies --   1006.5884              1014.1512              1025.8927
 Red. masses --      1.2510                 1.2555                 4.9886
 Frc consts  --      0.7468                 0.7608                 3.0934
 IR Inten    --     13.2203                10.1076                 2.0739

                     43                     44                     45
                      A                      A                      A
 Frequencies --   1030.2988              1056.2207              1066.1748
 Red. masses --      1.3188                 2.5059                 2.0568
 Frc consts  --      0.8248                 1.6471                 1.3775
 IR Inten    --      0.6753                43.8011                 0.8118

                     46                     47                     48
                      A                      A                      A
 Frequencies --   1072.8830              1088.5906              1093.1039
 Red. masses --      2.6771                 1.3800                 1.5450
 Frc consts  --      1.8156                 0.9635                 1.0877
 IR Inten    --      5.0030                25.4715               134.4400

                     49                     50                     51
                      A                      A                      A
 Frequencies --   1125.2007              1133.3435              1169.2138
 Red. masses --      1.5674                 1.2300                 1.4133
 Frc consts  --      1.1692                 0.9308                 1.1383
 IR Inten    --      8.8837                 0.7212                 7.9273

                     52                     53                     54
                      A                      A                      A
 Frequencies --   1185.7732              1194.0140              1219.5717
 Red. masses --      1.1409                 2.8932                 1.1283
 Frc consts  --      0.9451                 2.4303                 0.9888
 IR Inten    --      0.8070                46.5934                 1.6327

                     55                     56                     57
                      A                      A                      A
 Frequencies --   1239.9943              1254.0975              1315.7847
 Red. masses --      2.6290                 1.7222                 5.2497
 Frc consts  --      2.3816                 1.5959                 5.3549
 IR Inten    --    347.5274                56.7100                37.4738

                     58                     59                     60
                      A                      A                      A
 Frequencies --   1318.8724              1342.0739              1361.6587
 Red. masses --      4.6021                 1.3054                 1.4430
 Frc consts  --      4.7164                 1.3853                 1.5764
 IR Inten    --     40.3607                11.7402                 4.6006

                     61                     62                     63
                      A                      A                      A
 Frequencies --   1420.2951              1433.5136              1445.2942
 Red. masses --      2.8373                 2.6791                 1.2162
 Frc consts  --      3.3722                 3.2437                 1.4968
 IR Inten    --    937.8438                93.5432                16.4267

                     64                     65                     66
                      A                      A                      A
 Frequencies --   1469.6995              1473.8074              1484.0282
 Red. masses --      1.3077                 1.1596                 1.1127
 Frc consts  --      1.6642                 1.4841                 1.4438
 IR Inten    --     25.2169                38.7902                 5.0344

                     67                     68                     69
                      A                      A                      A
 Frequencies --   1490.0060              1491.9135              1495.4831
 Red. masses --      1.0410                 2.0798                 1.0890
 Frc consts  --      1.3616                 2.7275                 1.4350
 IR Inten    --     25.8230                54.8481                18.0271

                     70                     71                     72
                      A                      A                      A
 Frequencies --   1501.0269              1501.5297              1533.3668
 Red. masses --      1.0418                 1.0526                 1.4487
 Frc consts  --      1.3830                 1.3983                 2.0069
 IR Inten    --      9.1719                20.3948               220.1238

                     73                     74                     75
                      A                      A                      A
 Frequencies --   1544.9809              1643.9182              1648.6496
 Red. masses --      2.3698                 2.5883                 1.8766
 Frc consts  --      3.3328                 4.1212                 3.0053
 IR Inten    --     21.4532               419.1573               312.6567

                     76                     77                     78
                      A                      A                      A
 Frequencies --   1656.2524              1675.6273              3028.0495
 Red. masses --      3.5377                 5.7870                 1.0455
 Frc consts  --      5.7178                 9.5732                 5.6480
 IR Inten    --     39.7159                 0.6096                85.7317

                     79                     80                     81
                      A                      A                      A
 Frequencies --   3038.3312              3084.0822              3092.2947
 Red. masses --      1.0388                 1.0334                 1.1028
 Frc consts  --      5.6501                 5.7909                 6.2130
 IR Inten    --    113.1182                33.3648                68.1004

                     82                     83                     84
                      A                      A                      A
 Frequencies --   3103.3741              3167.6886              3169.4689
 Red. masses --      1.0947                 1.1051                 1.1002
 Frc consts  --      6.2117                 6.5335                 6.5118
 IR Inten    --     26.5510                 5.0379                12.8269

                     85                     86                     87
                      A                      A                      A
 Frequencies --   3172.3685              3186.4134              3200.1277
 Red. masses --      1.0981                 1.1052                 1.0861
 Frc consts  --      6.5111                 6.6114                 6.5534
 IR Inten    --     14.6842                12.8986                 0.2305

                     88                     89                     90
                      A                      A                      A
 Frequencies --   3208.3297              3217.4472              3225.6684
 Red. masses --      1.0894                 1.0934                 1.0977
 Frc consts  --      6.6069                 6.6691                 6.7295
 IR Inten    --      4.7619                20.7185                21.3081

                     91                     92                     93
                      A                      A                      A
 Frequencies --   3244.1890              3514.1991              3587.7223
 Red. masses --      1.0926                 1.0517                 1.0954
 Frc consts  --      6.7752                 7.6525                 8.3075
 IR Inten    --     18.2678                47.7801                56.7780

 - Thermochemistry -
 -------------------
 Temperature   298.150 Kelvin.  Pressure   1.00000 Atm.
 Atom     1 has atomic number  6 and mass  12.00000

 Molecular mass:   274.06397 amu.
 Principal axes and moments of inertia in atomic units:
                           1         2         3
     Eigenvalues --  3790.021835270.402066699.33336
           X            0.99819   0.05764  -0.01702
           Y           -0.05871   0.99572  -0.07140
           Z            0.01283   0.07227   0.99730
 This molecule is an asymmetric top.
 Rotational symmetry number  1.
 Warning -- assumption of classical behavior for rotation
           may cause significant error
 Rotational temperatures (Kelvin)      0.02285     0.01643     0.01293
 Rotational constants (GHZ):           0.47618     0.34243     0.26939
    1 imaginary frequencies ignored.
 Zero-point vibrational energy     700936.4 (Joules/Mol)
                                  167.52782 (Kcal/Mol)
 Warning -- explicit consideration of  27 degrees of freedom as
           vibrations may cause significant error
 Vibrational temperatures:     41.93    59.94    86.51   110.77   150.63
          (Kelvin)            179.01   188.57   200.99   233.34   239.69
                              257.80   277.19   323.13   325.20   349.41
                              381.77   403.32   422.41   470.21   506.07
                              537.22   606.49   616.54   706.50   758.10
                              827.07   877.37   920.89   954.04  1001.31
                             1034.90  1064.47  1115.63  1160.03  1249.53
                             1259.20  1345.38  1381.88  1448.26  1459.14
                             1476.03  1482.37  1519.67  1533.99  1543.64
                             1566.24  1572.73  1618.91  1630.63  1682.24
                             1706.06  1717.92  1754.69  1784.08  1804.37
                             1893.12  1897.56  1930.95  1959.12  2043.49
                             2062.51  2079.46  2114.57  2120.48  2135.19
                             2143.79  2146.53  2151.67  2159.64  2160.37
                             2206.17  2222.88  2365.23  2372.04  2382.98
                             2410.85  4356.69  4371.48  4437.31  4449.12
                             4465.06  4557.60  4560.16  4564.33  4584.54
                             4604.27  4616.07  4629.19  4641.02  4667.66
                             5056.15  5161.93

 Zero-point correction=                           0.266973 (Hartree/Particle)
 Thermal correction to Energy=                    0.285078
 Thermal correction to Enthalpy=                  0.286022
 Thermal correction to Gibbs Free Energy=         0.220115
 Sum of electronic and zero-point Energies=          -1571.775566
 Sum of electronic and thermal Energies=             -1571.757460
 Sum of electronic and thermal Enthalpies=           -1571.756516
 Sum of electronic and thermal Free Energies=        -1571.822423

                     E (Thermal)             CV                S
                      KCal/Mol        Cal/Mol-Kelvin    Cal/Mol-Kelvin
 Total                  178.889             65.591            138.713
 Electronic               0.000              0.000              0.000
 Translational            0.889              2.981             42.723
 Rotational               0.889              2.981             33.259
 Vibrational            177.112             59.629             62.731
 Vibration     1          0.593              1.984              5.887
 Vibration     2          0.594              1.981              5.178
 Vibration     3          0.597              1.973              4.453
 Vibration     4          0.599              1.965              3.966
 Vibration     5          0.605              1.945              3.365
 Vibration     6          0.610              1.929              3.031
 Vibration     7          0.612              1.922              2.930
 Vibration     8          0.615              1.914              2.808
 Vibration     9          0.622              1.889              2.524
 Vibration    10          0.624              1.884              2.474
 Vibration    11          0.629              1.868              2.337
 Vibration    12          0.635              1.850              2.202
 Vibration    13          0.649              1.804              1.922
 Vibration    14          0.650              1.801              1.910
 Vibration    15          0.659              1.775              1.782
 Vibration    16          0.671              1.737              1.626
 Vibration    17          0.680              1.710              1.532
 Vibration    18          0.688              1.686              1.453
 Vibration    19          0.710              1.622              1.276
 Vibration    20          0.728              1.572              1.158
 Vibration    21          0.745              1.527              1.066
 Vibration    22          0.784              1.423              0.887
 Vibration    23          0.790              1.408              0.864
 Vibration    24          0.847              1.270              0.681
 Vibration    25          0.882              1.190              0.594
 Vibration    26          0.931              1.086              0.495
 Vibration    27          0.969              1.011              0.433

 Optimization completed.
    -- Stationary point found.
 Normal termination of Gaussian 16 at Fri Feb 26 13:25:30 2021.
