 Gaussian 16, Revision A.03,
 Gaussian 16:  ES64L-G16RevA.03 25-Dec-2016

 ----------------------------------------------------------------------
 # wB97XD def2tzvp, opt=(ts, noeigen, calcfc, maxcycles=70, maxstep=1),
  freq=noraman, scrf=(iefpcm, solvent=water)
 ----------------------------------------------------------------------

 ------------------------
 0_iteration/TS-865-0.out
 ------------------------
 Symbolic Z-matrix:
 Charge =  0 Multiplicity = 1

 SCF Done:  E(RwB97XD) =  -3321.00871605     A.U. after   15 cycles
 SCF Done:  E(RwB97XD) =  -3321.00859474     A.U. after   10 cycles
 SCF Done:  E(RwB97XD) =  -3321.00847834     A.U. after   10 cycles
 SCF Done:  E(RwB97XD) =  -3321.00836609     A.U. after   10 cycles
 SCF Done:  E(RwB97XD) =  -3321.00825749     A.U. after   10 cycles
 SCF Done:  E(RwB97XD) =  -3321.00815243     A.U. after   10 cycles
 SCF Done:  E(RwB97XD) =  -3321.00805117     A.U. after   10 cycles
 SCF Done:  E(RwB97XD) =  -3321.00795388     A.U. after   10 cycles
 SCF Done:  E(RwB97XD) =  -3321.00786060     A.U. after   10 cycles
 SCF Done:  E(RwB97XD) =  -3321.00777125     A.U. after   10 cycles
 SCF Done:  E(RwB97XD) =  -3321.00809523     A.U. after    9 cycles
 SCF Done:  E(RwB97XD) =  -3321.00812163     A.U. after   10 cycles
 SCF Done:  E(RwB97XD) =  -3321.00814417     A.U. after   10 cycles
 SCF Done:  E(RwB97XD) =  -3321.00816209     A.U. after   10 cycles
 SCF Done:  E(RwB97XD) =  -3321.00817475     A.U. after   10 cycles
 SCF Done:  E(RwB97XD) =  -3321.00818190     A.U. after   10 cycles
 SCF Done:  E(RwB97XD) =  -3321.00818412     A.U. after   10 cycles
 SCF Done:  E(RwB97XD) =  -3321.00818410     A.U. after    8 cycles
 SCF Done:  E(RwB97XD) =  -3321.00818407     A.U. after    6 cycles
 Optimization completed.
    -- Stationary point found.
 Normal termination of Gaussian 16 at Wed Feb 24 02:00:57 2021.

 ---------------------------------------------------------------------
 #N Geom=AllCheck Guess=TCheck SCRF=Check GenChk RwB97XD/def2TZVP Freq
 ---------------------------------------------------------------------

 Structure from the checkpoint file:  "/beegfs/scratch/user/q/tla25/Gau-5158.chk"
 ------------------------
 0_iteration/TS-865-0.out
 ------------------------
 Charge =  0 Multiplicity = 1

                         Standard orientation:
 ---------------------------------------------------------------------
 Center     Atomic      Atomic             Coordinates (Angstroms)
 Number     Number       Type             X           Y           Z
 ---------------------------------------------------------------------
      1          6           0        0.474673    0.593670   -0.307600
      2          6           0        0.722979    2.001306   -0.364442
      3          8           0       -0.115534    2.846174   -0.657819
      4          6           0       -0.776131    0.110447   -0.609890
      5          6           0       -3.393328   -0.005680    0.836638
      6          1           0       -3.974389    0.178500    1.742069
      7          1           0       -3.767504    0.637963    0.041250
      8          1           0       -3.525158   -1.044082    0.537996
      9          7           0       -1.972238    0.257789    1.033708
     10          1           0       -1.800367    1.214554    1.317973
     11          1           0       -1.560984   -0.356471    1.726219
     12         17           0       -1.045529   -1.555857   -1.000406
     13          1           0       -1.428394    0.780131   -1.153174
     14         35           0        1.846692   -0.515403    0.389058
     15          1           0        1.757337    2.305692   -0.124086
 ---------------------------------------------------------------------

 SCF Done:  E(RwB97XD) =  -3321.00818407     A.U. after    1 cycles

 The electronic state is 1-A.
 Alpha  occ. eigenvalues -- -483.13155-101.71416 -62.67994 -56.47105 -56.46757
 Alpha  occ. eigenvalues --  -56.46751 -19.22980 -14.47450 -10.39828 -10.36677
 Alpha  occ. eigenvalues --  -10.32075 -10.31621  -9.59983  -8.82117  -7.34639
 Alpha  occ. eigenvalues --   -7.33776  -7.33708  -6.64257  -6.63139  -6.63120
 Alpha  occ. eigenvalues --   -2.74651  -2.74321  -2.74305  -2.73401  -2.73401
 Alpha  occ. eigenvalues --   -1.13424  -1.03319  -0.99017  -0.92045  -0.83586
 Alpha  occ. eigenvalues --   -0.78529  -0.74479  -0.64131  -0.62606  -0.59117
 Alpha  occ. eigenvalues --   -0.56148  -0.54336  -0.54292  -0.51802  -0.49305
 Alpha  occ. eigenvalues --   -0.47812  -0.47305  -0.46096  -0.41663  -0.40346
 Alpha  occ. eigenvalues --   -0.38618  -0.37622  -0.34318  -0.28942
 Alpha virt. eigenvalues --    0.01403   0.06313   0.10127   0.11981   0.14026
 Alpha virt. eigenvalues --    0.14476   0.15932   0.16794   0.17487   0.19648
 Alpha virt. eigenvalues --    0.20650   0.21933   0.22299   0.24535   0.26191

 Mulliken charges:
               1
     1  C   -0.093702
     2  C    0.108306
     3  O   -0.466773
     4  C   -0.008940
     5  C   -0.264162
     6  H    0.148617
     7  H    0.148433
     8  H    0.146566
     9  N   -0.400528
    10  H    0.282430
    11  H    0.282376
    12  Cl  -0.059490
    13  H    0.193517
    14  Br  -0.112195
    15  H    0.095546
 Sum of Mulliken charges =   0.00000

 Dipole moment (field-independent basis, Debye):
    X=             -5.0091    Y=             -2.2399    Z=              3.6370  Tot=              6.5829
 Quadrupole moment (field-independent basis, Debye-Ang):
   XX=            -55.7914   YY=            -80.0177   ZZ=            -64.2319
   XY=              1.3525   XZ=             -5.3588   YZ=              3.3821

  Exact polarizability: 163.600  11.373 144.720  -4.512  -4.593 101.878
 Approx polarizability: 123.196   2.482 121.182  -0.320  -3.696  90.166

 ******    1 imaginary frequencies (negative Signs) ******

                      1                      2                      3
                      A                      A                      A
 Frequencies --   -344.3493                29.6234                61.0652
 Red. masses --      6.3434                 2.9174                 2.8130
 Frc consts  --      0.4432                 0.0015                 0.0062
 IR Inten    --    780.7225                 0.2345                 8.2115

                      4                      5                      6
                      A                      A                      A
 Frequencies --     98.3042               137.3188               162.7962
 Red. masses --      4.8592                 8.0097                 1.3711
 Frc consts  --      0.0277                 0.0890                 0.0214
 IR Inten    --      7.9709                 1.9756                 2.5632

                      7                      8                      9
                      A                      A                      A
 Frequencies --    177.5105               192.5738               229.2537
 Red. masses --      6.3006                 4.5147                 2.6279
 Frc consts  --      0.1170                 0.0986                 0.0814
 IR Inten    --     10.9407                21.2984                 9.0294

                     10                     11                     12
                      A                      A                      A
 Frequencies --    291.5780               382.1239               449.6272
 Red. masses --      3.5151                11.8455                 6.6106
 Frc consts  --      0.1761                 1.0191                 0.7874
 IR Inten    --      4.9194                 1.1731               146.6189

                     13                     14                     15
                      A                      A                      A
 Frequencies --    523.3412               600.8597               704.4102
 Red. masses --      4.0728                 1.5652                 4.8904
 Frc consts  --      0.6572                 0.3329                 1.4297
 IR Inten    --     96.3606                23.7817               112.0045

                     16                     17                     18
                      A                      A                      A
 Frequencies --    897.2138               993.7800              1006.4744
 Red. masses --      3.9802                 1.1044                 1.0959
 Frc consts  --      1.8878                 0.6426                 0.6541
 IR Inten    --     61.5549                71.8160                78.4443

                     19                     20                     21
                      A                      A                      A
 Frequencies --   1032.5285              1069.1283              1097.5499
 Red. masses --      1.6416                 2.8129                 1.3117
 Frc consts  --      1.0312                 1.8944                 0.9309
 IR Inten    --      8.1044               185.3282                21.0962

                     22                     23                     24
                      A                      A                      A
 Frequencies --   1178.5580              1201.0690              1237.0691
 Red. masses --      4.3089                 1.4176                 1.2906
 Frc consts  --      3.5263                 1.2049                 1.1637
 IR Inten    --     56.8047                16.9924                54.8324

                     25                     26                     27
                      A                      A                      A
 Frequencies --   1344.8329              1426.1068              1432.6262
 Red. masses --      1.3293                 1.7940                 2.3115
 Frc consts  --      1.4165                 2.1497                 2.7952
 IR Inten    --      3.4376               506.7079               832.5389

                     28                     29                     30
                      A                      A                      A
 Frequencies --   1466.5849              1490.3341              1506.0668
 Red. masses --      1.2819                 1.0399                 1.0326
 Frc consts  --      1.6245                 1.3609                 1.3800
 IR Inten    --    115.3742                15.0640                 9.5247

                     31                     32                     33
                      A                      A                      A
 Frequencies --   1645.2702              1694.4890              2960.4472
 Red. masses --      1.0915                 7.8313                 1.0841
 Frc consts  --      1.7409                13.2483                 5.5978
 IR Inten    --     46.2482               432.9539               146.5661

                     34                     35                     36
                      A                      A                      A
 Frequencies --   3060.1073              3134.7436              3160.8517
 Red. masses --      1.0351                 1.1031                 1.1051
 Frc consts  --      5.7109                 6.3864                 6.5050
 IR Inten    --     57.7127                19.0281                15.6862

                     37                     38                     39
                      A                      A                      A
 Frequencies --   3222.2895              3530.3893              3615.7968
 Red. masses --      1.0907                 1.0502                 1.0967
 Frc consts  --      6.6725                 7.7123                 8.4481
 IR Inten    --      2.5613                23.4258                42.6333

 - Thermochemistry -
 -------------------
 Temperature   298.150 Kelvin.  Pressure   1.00000 Atm.
 Atom     1 has atomic number  6 and mass  12.00000

 Molecular mass:   198.93995 amu.
 Principal axes and moments of inertia in atomic units:
                           1         2         3
     Eigenvalues --  1392.740532355.871003084.33356
           X            0.99873   0.02698  -0.04265
           Y           -0.02708   0.99963  -0.00189
           Z            0.04258   0.00305   0.99909
 This molecule is an asymmetric top.
 Rotational symmetry number  1.
 Warning -- assumption of classical behavior for rotation
           may cause significant error
 Rotational temperatures (Kelvin)      0.06219     0.03677     0.02808
 Rotational constants (GHZ):           1.29582     0.76606     0.58513
    1 imaginary frequencies ignored.
 Zero-point vibrational energy     289763.6 (Joules/Mol)
                                   69.25517 (Kcal/Mol)
 Warning -- explicit consideration of  13 degrees of freedom as
           vibrations may cause significant error
 Vibrational temperatures:     42.62    87.86   141.44   197.57   234.23
          (Kelvin)            255.40   277.07   329.84   419.52   549.79
                              646.91   752.97   864.50  1013.49  1290.89
                             1429.83  1448.09  1485.58  1538.24  1579.13
                             1695.68  1728.07  1779.87  1934.91  2051.85
                             2061.23  2110.09  2144.26  2166.89  2367.18
                             2437.99  4259.42  4402.81  4510.20  4547.76
                             4636.16  5079.44  5202.33

 Zero-point correction=                           0.110365 (Hartree/Particle)
 Thermal correction to Energy=                    0.120405
 Thermal correction to Enthalpy=                  0.121349
 Thermal correction to Gibbs Free Energy=         0.072202
 Sum of electronic and zero-point Energies=          -3320.897819
 Sum of electronic and thermal Energies=             -3320.887780
 Sum of electronic and thermal Enthalpies=           -3320.886835
 Sum of electronic and thermal Free Energies=        -3320.935983

                     E (Thermal)             CV                S
                      KCal/Mol        Cal/Mol-Kelvin    Cal/Mol-Kelvin
 Total                   75.555             32.230            103.439
 Electronic               0.000              0.000              0.000
 Translational            0.889              2.981             41.768
 Rotational               0.889              2.981             30.693
 Vibrational             73.778             26.269             30.977
 Vibration     1          0.593              1.984              5.854
 Vibration     2          0.597              1.973              4.422
 Vibration     3          0.604              1.950              3.488
 Vibration     4          0.614              1.916              2.841
 Vibration     5          0.623              1.888              2.517
 Vibration     6          0.628              1.870              2.354
 Vibration     7          0.635              1.850              2.203
 Vibration     8          0.652              1.796              1.885
 Vibration     9          0.687              1.689              1.465
 Vibration    10          0.752              1.508              1.031
 Vibration    11          0.809              1.362              0.797
 Vibration    12          0.878              1.198              0.602
 Vibration    13          0.959              1.030              0.448

 Optimization completed.
    -- Stationary point found.
 Normal termination of Gaussian 16 at Wed Feb 24 02:07:59 2021.
