 Gaussian 16, Revision A.03,
 Gaussian 16:  ES64L-G16RevA.03 25-Dec-2016

 ----------------------------------------------------------------------
 # wB97XD def2tzvp, opt=(ts, noeigen, calcfc, maxcycles=70, maxstep=1),
  freq=noraman, scrf=(iefpcm, solvent=water)
 ----------------------------------------------------------------------

 ------------------------
 0_iteration/TS-889-0.out
 ------------------------
 Symbolic Z-matrix:
 Charge =  0 Multiplicity = 1

 SCF Done:  E(RwB97XD) =  -786.710743030     A.U. after   15 cycles
 SCF Done:  E(RwB97XD) =  -786.710701343     A.U. after   10 cycles
 SCF Done:  E(RwB97XD) =  -786.710663793     A.U. after   10 cycles
 SCF Done:  E(RwB97XD) =  -786.710630411     A.U. after   10 cycles
 SCF Done:  E(RwB97XD) =  -786.710601251     A.U. after   10 cycles
 SCF Done:  E(RwB97XD) =  -786.710576364     A.U. after   10 cycles
 SCF Done:  E(RwB97XD) =  -786.710555804     A.U. after   10 cycles
 SCF Done:  E(RwB97XD) =  -786.710539645     A.U. after   10 cycles
 SCF Done:  E(RwB97XD) =  -786.710528058     A.U. after   10 cycles
 SCF Done:  E(RwB97XD) =  -786.710521631     A.U. after   10 cycles
 SCF Done:  E(RwB97XD) =  -786.713912340     A.U. after   11 cycles
 SCF Done:  E(RwB97XD) =  -786.714009272     A.U. after   11 cycles
 SCF Done:  E(RwB97XD) =  -786.714086017     A.U. after   10 cycles
 SCF Done:  E(RwB97XD) =  -786.714140696     A.U. after   10 cycles
 SCF Done:  E(RwB97XD) =  -786.714174037     A.U. after   10 cycles
 SCF Done:  E(RwB97XD) =  -786.714192425     A.U. after   10 cycles
 SCF Done:  E(RwB97XD) =  -786.714197207     A.U. after   10 cycles
 SCF Done:  E(RwB97XD) =  -786.714197337     A.U. after    8 cycles
 SCF Done:  E(RwB97XD) =  -786.714197528     A.U. after    7 cycles
 Optimization completed.
    -- Stationary point found.
 Normal termination of Gaussian 16 at Wed Feb 24 01:25:23 2021.

 ---------------------------------------------------------------------
 #N Geom=AllCheck Guess=TCheck SCRF=Check GenChk RwB97XD/def2TZVP Freq
 ---------------------------------------------------------------------

 Structure from the checkpoint file:  "/beegfs/scratch/user/q/tla25/Gau-13485.chk"
 ------------------------
 0_iteration/TS-889-0.out
 ------------------------
 Charge =  0 Multiplicity = 1

                         Standard orientation:
 ---------------------------------------------------------------------
 Center     Atomic      Atomic             Coordinates (Angstroms)
 Number     Number       Type             X           Y           Z
 ---------------------------------------------------------------------
      1          6           0       -1.217957   -0.311822   -0.390812
      2          6           0       -2.352778    0.351787    0.120461
      3          8           0       -3.469749    0.379810   -0.408324
      4          6           0        0.028699   -0.280208    0.231428
      5          6           0        2.412828    1.488321   -0.227556
      6          1           0        2.418234    1.876076    0.788689
      7          1           0        3.013352    0.580979   -0.268430
      8          1           0        2.849270    2.234455   -0.892857
      9          7           0        1.039723    1.165132   -0.614229
     10          1           0        0.417228    1.955478   -0.485751
     11          1           0        0.983252    0.894692   -1.589906
     12         17           0        1.110803   -1.614036   -0.250835
     13          6           0        0.231379    0.100058    1.670561
     14          1           0       -0.223921    1.065145    1.886784
     15          1           0       -0.231828   -0.654421    2.306435
     16          1           0        1.289522    0.150117    1.915948
     17          1           0       -1.312646   -0.824009   -1.340423
     18          1           0       -2.219212    0.876879    1.085407
 ---------------------------------------------------------------------

 SCF Done:  E(RwB97XD) =  -786.714197528     A.U. after    1 cycles

 The electronic state is 1-A.
 Alpha  occ. eigenvalues -- -101.69997 -19.20506 -14.48585 -10.40825 -10.34447
 Alpha  occ. eigenvalues --  -10.31920 -10.29422 -10.25631  -9.58600  -7.33221
 Alpha  occ. eigenvalues --   -7.32398  -7.32352  -1.10603  -1.04348  -0.97826
 Alpha  occ. eigenvalues --   -0.87687  -0.81925  -0.79078  -0.70108  -0.63276
 Alpha  occ. eigenvalues --   -0.62909  -0.58776  -0.56280  -0.55519  -0.54494
 Alpha  occ. eigenvalues --   -0.50482  -0.49663  -0.48254  -0.47348  -0.46384
 Alpha  occ. eigenvalues --   -0.45928  -0.44207  -0.40246  -0.39047  -0.32145
 Alpha  occ. eigenvalues --   -0.28638
 Alpha virt. eigenvalues --    0.03449   0.08522   0.10311   0.13356   0.14223
 Alpha virt. eigenvalues --    0.14809   0.16604   0.17991   0.18455   0.18860
 Alpha virt. eigenvalues --    0.19673   0.19949   0.20852   0.22872   0.23479

 Mulliken charges:
               1
     1  C   -0.289945
     2  C    0.120201
     3  O   -0.520284
     4  C    0.131157
     5  C   -0.289053
     6  H    0.161536
     7  H    0.149546
     8  H    0.158223
     9  N   -0.338002
    10  H    0.282475
    11  H    0.284851
    12  Cl  -0.120212
    13  C   -0.404443
    14  H    0.153868
    15  H    0.166762
    16  H    0.160806
    17  H    0.130905
    18  H    0.061610
 Sum of Mulliken charges =  -0.00000

 Dipole moment (field-independent basis, Debye):
    X=              9.9744    Y=              4.2375    Z=              1.1773  Tot=             10.9010
 Quadrupole moment (field-independent basis, Debye-Ang):
   XX=            -80.8084   YY=            -52.5069   ZZ=            -51.2359
   XY=              7.1506   XZ=             -6.5428   YZ=             -0.7708

  Exact polarizability: 180.122  -0.932 110.725   0.861   3.135 100.255
 Approx polarizability: 132.655  -2.711  93.450   1.581   2.652  85.916

 ******    1 imaginary frequencies (negative Signs) ******

                      1                      2                      3
                      A                      A                      A
 Frequencies --   -351.6868                70.3150                85.4424
 Red. masses --      5.9850                 2.1654                 3.9595
 Frc consts  --      0.4361                 0.0063                 0.0170
 IR Inten    --    932.3819                 2.9931                 3.1032

                      4                      5                      6
                      A                      A                      A
 Frequencies --    168.8232               185.8346               196.8528
 Red. masses --      1.6115                 2.9078                 1.8691
 Frc consts  --      0.0271                 0.0592                 0.0427
 IR Inten    --      1.3785                18.8264                 4.6976

                      7                      8                      9
                      A                      A                      A
 Frequencies --    223.0611               249.1551               278.6367
 Red. masses --      2.8806                 1.5402                 1.9238
 Frc consts  --      0.0844                 0.0563                 0.0880
 IR Inten    --      7.0429                 1.1285                 0.4908

                     10                     11                     12
                      A                      A                      A
 Frequencies --    334.1990               361.6014               407.2362
 Red. masses --      2.3141                 4.9255                 4.9095
 Frc consts  --      0.1523                 0.3795                 0.4797
 IR Inten    --      6.6115                 9.9567                44.0561

                     13                     14                     15
                      A                      A                      A
 Frequencies --    466.8941               520.1497               658.7665
 Red. masses --      3.2131                 4.7835                 1.4412
 Frc consts  --      0.4127                 0.7625                 0.3685
 IR Inten    --    119.2524                38.1858                12.1113

                     16                     17                     18
                      A                      A                      A
 Frequencies --    740.4082               780.6915               954.1496
 Red. masses --      2.8592                 1.2816                 2.5356
 Frc consts  --      0.9235                 0.4602                 1.3601
 IR Inten    --    177.8493               153.5954               152.0013

                     19                     20                     21
                      A                      A                      A
 Frequencies --   1015.3718              1030.8607              1045.1030
 Red. masses --      1.1092                 1.6232                 1.1894
 Frc consts  --      0.6737                 1.0163                 0.7654
 IR Inten    --     37.3862                 7.2266                47.5300

                     22                     23                     24
                      A                      A                      A
 Frequencies --   1055.8166              1075.9831              1108.1855
 Red. masses --      1.9401                 2.2316                 1.7784
 Frc consts  --      1.2743                 1.5222                 1.2868
 IR Inten    --    170.0333                27.3930               131.6924

                     25                     26                     27
                      A                      A                      A
 Frequencies --   1225.6031              1230.5744              1325.0740
 Red. masses --      2.1094                 1.3838                 1.7579
 Frc consts  --      1.8668                 1.2347                 1.8186
 IR Inten    --    308.4425                25.3523                31.5808

                     28                     29                     30
                      A                      A                      A
 Frequencies --   1346.5259              1399.7880              1422.3143
 Red. masses --      1.3399                 1.8258                 1.3549
 Frc consts  --      1.4314                 2.1077                 1.6149
 IR Inten    --      3.7372               714.2008                40.1947

                     31                     32                     33
                      A                      A                      A
 Frequencies --   1455.2814              1476.8268              1484.2816
 Red. masses --      1.1773                 1.1305                 1.1126
 Frc consts  --      1.4690                 1.4527                 1.4442
 IR Inten    --      4.9152                21.6196                99.1450

                     34                     35                     36
                      A                      A                      A
 Frequencies --   1494.4598              1505.7887              1523.8102
 Red. masses --      1.0544                 1.0719                 1.8407
 Frc consts  --      1.3875                 1.4320                 2.5182
 IR Inten    --     20.6416                18.4356               219.0405

                     37                     38                     39
                      A                      A                      A
 Frequencies --   1637.3956              1662.5457              2930.1972
 Red. masses --      1.1014                 5.1936                 1.0803
 Frc consts  --      1.7398                 8.4580                 5.4651
 IR Inten    --    141.5163              1188.2192               150.8207

                     40                     41                     42
                      A                      A                      A
 Frequencies --   3068.3973              3079.7523              3146.1265
 Red. masses --      1.0350                 1.0363                 1.1027
 Frc consts  --      5.7412                 5.7913                 6.4310
 IR Inten    --     43.3050                 7.6631                12.3555

                     43                     44                     45
                      A                      A                      A
 Frequencies --   3157.5499              3170.2281              3173.4695
 Red. masses --      1.1023                 1.1045                 1.1046
 Frc consts  --      6.4754                 6.5402                 6.5540
 IR Inten    --      8.1784                15.9154                 7.7005

                     46                     47                     48
                      A                      A                      A
 Frequencies --   3196.8093              3517.5990              3599.9930
 Red. masses --      1.0890                 1.0513                 1.0964
 Frc consts  --      6.5574                 7.6642                 8.3722
 IR Inten    --      6.6125                23.4584                43.0606

 - Thermochemistry -
 -------------------
 Temperature   298.150 Kelvin.  Pressure   1.00000 Atm.
 Atom     1 has atomic number  6 and mass  12.00000

 Molecular mass:   135.04509 amu.
 Principal axes and moments of inertia in atomic units:
                           1         2         3
     Eigenvalues --   801.791961806.295272131.44430
           X            0.99844   0.05562  -0.00529
           Y           -0.05564   0.99844  -0.00449
           Z            0.00503   0.00477   0.99998
 This molecule is an asymmetric top.
 Rotational symmetry number  1.
 Warning -- assumption of classical behavior for rotation
           may cause significant error
 Rotational temperatures (Kelvin)      0.10803     0.04795     0.04064
 Rotational constants (GHZ):           2.25088     0.99914     0.84672
    1 imaginary frequencies ignored.
 Zero-point vibrational energy     390245.4 (Joules/Mol)
                                   93.27088 (Kcal/Mol)
 Warning -- explicit consideration of  13 degrees of freedom as
           vibrations may cause significant error
 Vibrational temperatures:    101.17   122.93   242.90   267.37   283.23
          (Kelvin)            320.94   358.48   400.90   480.84   520.26
                              585.92   671.76   748.38   947.82  1065.28
                             1123.24  1372.81  1460.89  1483.18  1503.67
                             1519.08  1548.10  1594.43  1763.37  1770.52
                             1906.49  1937.35  2013.98  2046.39  2093.83
                             2124.82  2135.55  2150.19  2166.49  2192.42
                             2355.85  2392.03  4215.90  4414.74  4431.08
                             4526.57  4543.01  4561.25  4565.91  4599.50
                             5061.04  5179.59

 Zero-point correction=                           0.148637 (Hartree/Particle)
 Thermal correction to Energy=                    0.158371
 Thermal correction to Enthalpy=                  0.159315
 Thermal correction to Gibbs Free Energy=         0.113501
 Sum of electronic and zero-point Energies=           -786.565561
 Sum of electronic and thermal Energies=              -786.555827
 Sum of electronic and thermal Enthalpies=            -786.554883
 Sum of electronic and thermal Free Energies=         -786.600697

                     E (Thermal)             CV                S
                      KCal/Mol        Cal/Mol-Kelvin    Cal/Mol-Kelvin
 Total                   99.379             34.003             96.423
 Electronic               0.000              0.000              0.000
 Translational            0.889              2.981             40.614
 Rotational               0.889              2.981             29.514
 Vibrational             97.602             28.041             26.296
 Vibration     1          0.598              1.968              4.145
 Vibration     2          0.601              1.959              3.762
 Vibration     3          0.625              1.881              2.449
 Vibration     4          0.632              1.859              2.269
 Vibration     5          0.636              1.844              2.162
 Vibration     6          0.649              1.806              1.934
 Vibration     7          0.662              1.764              1.737
 Vibration     8          0.679              1.713              1.542
 Vibration     9          0.716              1.607              1.240
 Vibration    10          0.736              1.551              1.115
 Vibration    11          0.772              1.455              0.936
 Vibration    12          0.824              1.323              0.746
 Vibration    13          0.875              1.205              0.610

 Optimization completed.
    -- Stationary point found.
 Normal termination of Gaussian 16 at Wed Feb 24 01:32:51 2021.
