 Gaussian 16, Revision A.03,
 Gaussian 16:  ES64L-G16RevA.03 25-Dec-2016

 ----------------------------------------------------------------------
 # wB97XD def2tzvp, opt=(ts, noeigen, calcfc, maxcycles=70, maxstep=8),
  freq=noraman, scrf=(iefpcm, solvent=water)
 ----------------------------------------------------------------------

 ------------------------
 1_iteration/TS-841-1.out
 ------------------------
 Symbolic Z-matrix:
 Charge =  0 Multiplicity = 1

 SCF Done:  E(RwB97XD) =  -978.452377563     A.U. after   15 cycles
 SCF Done:  E(RwB97XD) =  -978.452440364     A.U. after   12 cycles
 SCF Done:  E(RwB97XD) =  -978.452356297     A.U. after   13 cycles
 SCF Done:  E(RwB97XD) =  -978.452518097     A.U. after   12 cycles
 SCF Done:  E(RwB97XD) =  -978.452269756     A.U. after   12 cycles
 SCF Done:  E(RwB97XD) =  -978.452495006     A.U. after   12 cycles
 SCF Done:  E(RwB97XD) =  -978.452509868     A.U. after   12 cycles
 SCF Done:  E(RwB97XD) =  -978.452523841     A.U. after   11 cycles
 SCF Done:  E(RwB97XD) =  -978.452523564     A.U. after    8 cycles
 SCF Done:  E(RwB97XD) =  -978.452524235     A.U. after    8 cycles
 SCF Done:  E(RwB97XD) =  -978.452523913     A.U. after    7 cycles
 SCF Done:  E(RwB97XD) =  -978.452524017     A.U. after    6 cycles
 Optimization completed.
    -- Stationary point found.
 Normal termination of Gaussian 16 at Thu Feb 25 16:22:20 2021.

 ---------------------------------------------------------------------
 #N Geom=AllCheck Guess=TCheck SCRF=Check GenChk RwB97XD/def2TZVP Freq
 ---------------------------------------------------------------------

 Structure from the checkpoint file:  "/beegfs/scratch/user/q/tla25/Gau-36015.chk"
 ------------------------
 1_iteration/TS-841-1.out
 ------------------------
 Charge =  0 Multiplicity = 1

                         Standard orientation:
 ---------------------------------------------------------------------
 Center     Atomic      Atomic             Coordinates (Angstroms)
 Number     Number       Type             X           Y           Z
 ---------------------------------------------------------------------
      1          6           0       -0.472638    0.725158   -0.410365
      2          6           0       -0.735520    2.131684   -0.422305
      3          8           0        0.048511    3.038886   -0.158962
      4          6           0       -1.571390   -0.069291   -0.701631
      5          6           0       -2.570336    0.409788    1.891525
      6          1           0       -1.545632    0.719247    2.096891
      7          1           0       -3.113103    1.259429    1.480076
      8          1           0       -3.045247    0.096725    2.821036
      9          7           0       -2.547583   -0.663384    0.908266
     10          1           0       -2.097034   -1.497261    1.266448
     11          1           0       -3.479048   -0.925326    0.606529
     12         17           0       -1.364580   -1.652086   -1.437284
     13          1           0       -2.448631    0.423797   -1.097916
     14          6           0        0.862862    0.194756   -0.067995
     15          6           0        1.028673   -0.848728    0.843731
     16          6           0        2.287822   -1.341489    1.153129
     17          6           0        3.415808   -0.793852    0.561044
     18          6           0        3.269398    0.247888   -0.345146
     19          6           0        2.009539    0.733847   -0.656415
     20          1           0        0.165782   -1.285741    1.329214
     21          1           0        2.385621   -2.152324    1.864330
     22          1           0        4.400103   -1.174295    0.803188
     23          1           0        4.142174    0.681752   -0.817614
     24          1           0        1.907510    1.541851   -1.368410
     25          1           0       -1.774947    2.391642   -0.709550
 ---------------------------------------------------------------------

 SCF Done:  E(RwB97XD) =  -978.452524017     A.U. after    1 cycles

 The electronic state is 1-A.
 Alpha  occ. eigenvalues -- -101.70538 -19.21534 -14.48571 -10.39429 -10.35293
 Alpha  occ. eigenvalues --  -10.31886 -10.30067 -10.28803 -10.28739 -10.28677
 Alpha  occ. eigenvalues --  -10.28549 -10.28417 -10.27679  -9.59117  -7.33759
 Alpha  occ. eigenvalues --   -7.32909  -7.32860  -1.11891  -1.04278  -0.98225
 Alpha  occ. eigenvalues --   -0.96077  -0.89189  -0.84784  -0.83614  -0.79130
 Alpha  occ. eigenvalues --   -0.72667  -0.70831  -0.69709  -0.65339  -0.62965
 Alpha  occ. eigenvalues --   -0.59735  -0.57640  -0.57482  -0.55395  -0.54657
 Alpha  occ. eigenvalues --   -0.53541  -0.52962  -0.50578  -0.49517  -0.49050
 Alpha  occ. eigenvalues --   -0.48175  -0.47521  -0.46220  -0.45787  -0.43251
 Alpha  occ. eigenvalues --   -0.42556  -0.40391  -0.38816  -0.34626  -0.33745
 Alpha  occ. eigenvalues --   -0.32551  -0.28096
 Alpha virt. eigenvalues --    0.03587   0.04946   0.05622   0.09204   0.10263
 Alpha virt. eigenvalues --    0.13305   0.13894   0.14070   0.15029   0.16257
 Alpha virt. eigenvalues --    0.17069   0.17815   0.18844   0.19180   0.20200

 Mulliken charges:
               1
     1  C   -0.108609
     2  C    0.116040
     3  O   -0.479964
     4  C   -0.015135
     5  C   -0.303150
     6  H    0.162226
     7  H    0.159040
     8  H    0.164023
     9  N   -0.352271
    10  H    0.279116
    11  H    0.290960
    12  Cl  -0.094480
    13  H    0.197077
    14  C    0.181572
    15  C   -0.242684
    16  C   -0.154105
    17  C   -0.159266
    18  C   -0.129257
    19  C   -0.264761
    20  H    0.129940
    21  H    0.139110
    22  H    0.141155
    23  H    0.139502
    24  H    0.138185
    25  H    0.065736
 Sum of Mulliken charges =  -0.00000

 Dipole moment (field-independent basis, Debye):
    X=             -7.5444    Y=             -5.9515    Z=              3.2605  Tot=             10.1474
 Quadrupole moment (field-independent basis, Debye-Ang):
   XX=            -58.8797   YY=           -100.6861   ZZ=            -80.5376
   XY=             -1.1013   XZ=             -7.1607   YZ=             -6.8404

  Exact polarizability: 238.894  12.651 212.893  -6.096 -21.096 161.890
 Approx polarizability: 185.367  11.665 177.592  -3.996 -16.691 138.996

 ******    1 imaginary frequencies (negative Signs) ******

                      1                      2                      3
                      A                      A                      A
 Frequencies --   -352.5190                40.7124                60.4967
 Red. masses --      5.8568                 3.8427                 3.9972
 Frc consts  --      0.4288                 0.0038                 0.0086
 IR Inten    --    844.0379                 1.3331                 2.5477

                      4                      5                      6
                      A                      A                      A
 Frequencies --     85.3086                97.3892               141.3709
 Red. masses --      7.4350                 4.6348                 1.9474
 Frc consts  --      0.0319                 0.0259                 0.0229
 IR Inten    --      2.4989                 3.2197                11.1224

                      7                      8                      9
                      A                      A                      A
 Frequencies --    167.4255               184.8855               193.4249
 Red. masses --      2.0493                 2.2741                 4.6977
 Frc consts  --      0.0338                 0.0458                 0.1036
 IR Inten    --     10.6271                 4.8238                 5.2080

                     10                     11                     12
                      A                      A                      A
 Frequencies --    227.8501               284.0141               303.2487
 Red. masses --      4.8249                 2.8541                 4.7421
 Frc consts  --      0.1476                 0.1356                 0.2569
 IR Inten    --     18.8838                 5.4858                63.1268

                     13                     14                     15
                      A                      A                      A
 Frequencies --    360.8958               401.2143               421.5575
 Red. masses --      3.5605                 5.7650                 2.8803
 Frc consts  --      0.2732                 0.5468                 0.3016
 IR Inten    --      9.5612                 9.0027                 0.2046

                     16                     17                     18
                      A                      A                      A
 Frequencies --    471.1453               491.9746               588.5855
 Red. masses --      5.4604                 4.0465                 2.4523
 Frc consts  --      0.7141                 0.5771                 0.5005
 IR Inten    --     25.3031                28.4229                36.4978

                     19                     20                     21
                      A                      A                      A
 Frequencies --    638.2145               642.2715               722.2328
 Red. masses --      3.3441                 2.7797                 1.7194
 Frc consts  --      0.8025                 0.6756                 0.5284
 IR Inten    --     14.7542                36.7234                49.0988

                     22                     23                     24
                      A                      A                      A
 Frequencies --    741.8999               750.8726               810.7013
 Red. masses --      3.3524                 3.3888                 2.5213
 Frc consts  --      1.0872                 1.1257                 0.9763
 IR Inten    --    164.5551                 7.0933                49.6505

                     25                     26                     27
                      A                      A                      A
 Frequencies --    832.1819               870.8962               947.6532
 Red. masses --      5.1328                 1.2548                 1.4681
 Frc consts  --      2.0943                 0.5607                 0.7768
 IR Inten    --    167.7439                 1.0463                 7.1585

                     28                     29                     30
                      A                      A                      A
 Frequencies --    995.7310              1005.5638              1010.4503
 Red. masses --      1.0765                 1.3550                 1.1166
 Frc consts  --      0.6288                 0.8073                 0.6717
 IR Inten    --     13.8223                 1.8563               102.0519

                     31                     32                     33
                      A                      A                      A
 Frequencies --   1022.3992              1023.8185              1028.9762
 Red. masses --      1.2983                 3.3167                 2.1028
 Frc consts  --      0.7996                 2.0483                 1.3118
 IR Inten    --      0.4566                 3.0898                 8.1098

                     34                     35                     36
                      A                      A                      A
 Frequencies --   1061.9127              1084.9799              1117.2904
 Red. masses --      2.4453                 4.6190                 1.6163
 Frc consts  --      1.6247                 3.2036                 1.1888
 IR Inten    --      8.1933                37.1394                14.9483

                     37                     38                     39
                      A                      A                      A
 Frequencies --   1132.4809              1151.1997              1183.1638
 Red. masses --      1.1337                 3.2626                 1.1271
 Frc consts  --      0.8567                 2.5475                 0.9296
 IR Inten    --     72.4193                17.8763                 0.4897

                     40                     41                     42
                      A                      A                      A
 Frequencies --   1213.2171              1217.8056              1224.1505
 Red. masses --      1.3421                 1.1805                 1.5690
 Frc consts  --      1.1639                 1.0315                 1.3853
 IR Inten    --     28.4163                20.4697               210.6523

                     43                     44                     45
                      A                      A                      A
 Frequencies --   1313.6958              1342.0548              1361.6749
 Red. masses --      4.0511                 1.3385                 1.5800
 Frc consts  --      4.1192                 1.4204                 1.7260
 IR Inten    --     27.5521                 1.7362               141.6353

                     46                     47                     48
                      A                      A                      A
 Frequencies --   1387.6425              1435.3567              1462.0603
 Red. masses --      1.7654                 2.0719                 1.1958
 Frc consts  --      2.0028                 2.5150                 1.5061
 IR Inten    --    431.6018               109.1285                 4.9968

                     49                     50                     51
                      A                      A                      A
 Frequencies --   1481.3407              1495.0125              1503.7958
 Red. masses --      2.0179                 1.0463                 1.1305
 Frc consts  --      2.6090                 1.3778                 1.5063
 IR Inten    --     57.1570                18.2206                33.9479

                     52                     53                     54
                      A                      A                      A
 Frequencies --   1506.5437              1554.6647              1645.3258
 Red. masses --      1.9885                 2.6884                 4.3801
 Frc consts  --      2.6591                 3.8284                 6.9862
 IR Inten    --    109.5342                97.9011                 6.6406

                     55                     56                     57
                      A                      A                      A
 Frequencies --   1657.1168              1668.6360              1687.1243
 Red. masses --      1.1555                 6.3525                 7.1969
 Frc consts  --      1.8695                10.4212                12.0695
 IR Inten    --     67.5180               325.5658               679.6336

                     58                     59                     60
                      A                      A                      A
 Frequencies --   2898.0429              3068.5290              3149.1955
 Red. masses --      1.0808                 1.0327                 1.1053
 Frc consts  --      5.3484                 5.7290                 6.4584
 IR Inten    --    186.3701                24.7326                11.2466

                     61                     62                     63
                      A                      A                      A
 Frequencies --   3159.7670              3191.7172              3198.9188
 Red. masses --      1.1055                 1.0855                 1.0887
 Frc consts  --      6.5031                 6.5152                 6.5642
 IR Inten    --     15.4530                 4.3574                 5.6663

                     64                     65                     66
                      A                      A                      A
 Frequencies --   3210.9946              3211.2569              3219.1558
 Red. masses --      1.0921                 1.0914                 1.0949
 Frc consts  --      6.6344                 6.6308                 6.6850
 IR Inten    --     48.3844                 1.3104                38.3998

                     67                     68                     69
                      A                      A                      A
 Frequencies --   3225.1928              3528.8569              3610.6748
 Red. masses --      1.0962                 1.0505                 1.0962
 Frc consts  --      6.7181                 7.7073                 8.4198
 IR Inten    --      4.3039                55.5646                42.9853

 - Thermochemistry -
 -------------------
 Temperature   298.150 Kelvin.  Pressure   1.00000 Atm.
 Atom     1 has atomic number  6 and mass  12.00000

 Molecular mass:   197.06074 amu.
 Principal axes and moments of inertia in atomic units:
                           1         2         3
     Eigenvalues --  2060.991513452.908284105.36944
           X            0.99910  -0.03144  -0.02833
           Y            0.02950   0.99736  -0.06638
           Z            0.03035   0.06548   0.99739
 This molecule is an asymmetric top.
 Rotational symmetry number  1.
 Warning -- assumption of classical behavior for rotation
           may cause significant error
 Rotational temperatures (Kelvin)      0.04203     0.02508     0.02110
 Rotational constants (GHZ):           0.87567     0.52267     0.43961
    1 imaginary frequencies ignored.
 Zero-point vibrational energy     533091.3 (Joules/Mol)
                                  127.41189 (Kcal/Mol)
 Warning -- explicit consideration of  17 degrees of freedom as
           vibrations may cause significant error
 Vibrational temperatures:     58.58    87.04   122.74   140.12   203.40
          (Kelvin)            240.89   266.01   278.30   327.83   408.63
                              436.31   519.25   577.26   606.53   677.87
                              707.84   846.84   918.25   924.09  1039.13
                             1067.43  1080.34  1166.42  1197.32  1253.03
                             1363.46  1432.63  1446.78  1453.81  1471.00
                             1473.05  1480.47  1527.86  1561.04  1607.53
                             1629.39  1656.32  1702.31  1745.55  1752.15
                             1761.28  1890.12  1930.92  1959.15  1996.51
                             2065.16  2103.58  2131.32  2150.99  2163.63
                             2167.58  2236.82  2367.26  2384.22  2400.79
                             2427.40  4169.64  4414.93  4530.99  4546.20
                             4592.17  4602.53  4619.91  4620.28  4631.65
                             4640.33  5077.24  5194.96

 Zero-point correction=                           0.203044 (Hartree/Particle)
 Thermal correction to Energy=                    0.215739
 Thermal correction to Enthalpy=                  0.216684
 Thermal correction to Gibbs Free Energy=         0.162898
 Sum of electronic and zero-point Energies=           -978.249480
 Sum of electronic and thermal Energies=              -978.236785
 Sum of electronic and thermal Enthalpies=            -978.235840
 Sum of electronic and thermal Free Energies=         -978.289626

                     E (Thermal)             CV                S
                      KCal/Mol        Cal/Mol-Kelvin    Cal/Mol-Kelvin
 Total                  135.379             46.507            113.202
 Electronic               0.000              0.000              0.000
 Translational            0.889              2.981             41.740
 Rotational               0.889              2.981             31.747
 Vibrational            133.601             40.545             39.715
 Vibration     1          0.594              1.981              5.224
 Vibration     2          0.597              1.973              4.441
 Vibration     3          0.601              1.959              3.765
 Vibration     4          0.603              1.951              3.506
 Vibration     5          0.615              1.912              2.785
 Vibration     6          0.624              1.883              2.464
 Vibration     7          0.631              1.860              2.279
 Vibration     8          0.635              1.849              2.195
 Vibration     9          0.651              1.799              1.896
 Vibration    10          0.682              1.703              1.509
 Vibration    11          0.695              1.668              1.399
 Vibration    12          0.735              1.553              1.118
 Vibration    13          0.767              1.468              0.958
 Vibration    14          0.784              1.423              0.887
 Vibration    15          0.828              1.314              0.734
 Vibration    16          0.848              1.268              0.678
 Vibration    17          0.946              1.056              0.470

 Optimization completed.
    -- Stationary point found.
 Normal termination of Gaussian 16 at Thu Feb 25 16:58:16 2021.
