 Gaussian 16, Revision A.03,
 Gaussian 16:  ES64L-G16RevA.03 25-Dec-2016

 ----------------------------------------------------------------------
 # wB97XD def2tzvp, opt=(ts, noeigen, calcfc, maxcycles=70, maxstep=8),
  freq=noraman, scrf=(iefpcm, solvent=water)
 ----------------------------------------------------------------------

 ------------------------
 1_iteration/TS-878-1.out
 ------------------------
 Symbolic Z-matrix:
 Charge =  0 Multiplicity = 1

 SCF Done:  E(RwB97XD) =  -1340.99994563     A.U. after   15 cycles
 SCF Done:  E(RwB97XD) =  -1340.99994941     A.U. after   10 cycles
 Optimization completed.
    -- Stationary point found.
 Normal termination of Gaussian 16 at Thu Feb 25 14:55:03 2021.

 ---------------------------------------------------------------------
 #N Geom=AllCheck Guess=TCheck SCRF=Check GenChk RwB97XD/def2TZVP Freq
 ---------------------------------------------------------------------

 Structure from the checkpoint file:  "/beegfs/scratch/user/q/tla25/Gau-39797.chk"
 ------------------------
 1_iteration/TS-878-1.out
 ------------------------
 Charge =  0 Multiplicity = 1

                         Standard orientation:
 ---------------------------------------------------------------------
 Center     Atomic      Atomic             Coordinates (Angstroms)
 Number     Number       Type             X           Y           Z
 ---------------------------------------------------------------------
      1          6           0        0.117368   -0.386680   -0.149064
      2          6           0        1.150879    0.638923   -0.197581
      3          8           0        0.821231    1.834749   -0.309145
      4          6           0       -1.148331    0.004813   -0.552307
      5          6           0       -3.163581    1.863605    0.345217
      6          1           0       -3.435242    2.633299    1.068722
      7          1           0       -3.025150    2.329939   -0.629831
      8          1           0       -3.970054    1.136375    0.277292
      9          7           0       -1.930128    1.181890    0.722259
     10          1           0       -1.139629    1.818649    0.788877
     11          1           0       -2.019043    0.669528    1.591590
     12         17           0       -2.414390   -1.188620   -0.744939
     13          1           0       -1.182863    0.747819   -1.337610
     14         17           0        0.275989   -1.736095    0.965946
     15          7           0        2.460644    0.290212   -0.106061
     16          6           0        2.978439   -1.010250   -0.480194
     17          6           0        3.453725    1.330639    0.053120
     18          1           0        2.201670   -1.611157   -0.943965
     19          1           0        3.783689   -0.874720   -1.206723
     20          1           0        3.378112   -1.549887    0.381715
     21          1           0        3.022405    2.176762    0.580832
     22          1           0        4.291182    0.934983    0.629695
     23          1           0        3.833271    1.679555   -0.913079
 ---------------------------------------------------------------------

 SCF Done:  E(RwB97XD) =  -1340.99994941     A.U. after    1 cycles

 The electronic state is 1-A.
 Alpha  occ. eigenvalues -- -101.70461-101.68890 -19.20661 -14.48080 -14.45746
 Alpha  occ. eigenvalues --  -10.38986 -10.38267 -10.31787 -10.30764 -10.30751
 Alpha  occ. eigenvalues --  -10.30441  -9.59038  -9.57406  -7.33686  -7.32827
 Alpha  occ. eigenvalues --   -7.32778  -7.32040  -7.31198  -7.31179  -1.13381
 Alpha  occ. eigenvalues --   -1.04047  -1.03154  -0.98423  -0.94197  -0.84053
 Alpha  occ. eigenvalues --   -0.81582  -0.79743  -0.78244  -0.69424  -0.63751
 Alpha  occ. eigenvalues --   -0.62716  -0.59929  -0.56856  -0.56410  -0.56034
 Alpha  occ. eigenvalues --   -0.54678  -0.52716  -0.51799  -0.48805  -0.48547
 Alpha  occ. eigenvalues --   -0.48176  -0.47921  -0.47243  -0.46200  -0.45489
 Alpha  occ. eigenvalues --   -0.41911  -0.40739  -0.39418  -0.38720  -0.34789
 Alpha  occ. eigenvalues --   -0.32029  -0.26900
 Alpha virt. eigenvalues --    0.05915   0.07861   0.10481   0.12280   0.13333
 Alpha virt. eigenvalues --    0.14398   0.15814   0.15995   0.17184   0.17669
 Alpha virt. eigenvalues --    0.17978   0.19188   0.19534   0.20148   0.20381

 Mulliken charges:
               1
     1  C   -0.235133
     2  C    0.349499
     3  O   -0.570753
     4  C   -0.010739
     5  C   -0.273722
     6  H    0.152196
     7  H    0.148240
     8  H    0.149607
     9  N   -0.323348
    10  H    0.275794
    11  H    0.280699
    12  Cl  -0.095120
    13  H    0.186419
    14  Cl  -0.173116
    15  N   -0.117443
    16  C   -0.300576
    17  C   -0.291330
    18  H    0.156757
    19  H    0.136577
    20  H    0.141232
    21  H    0.139514
    22  H    0.140182
    23  H    0.134563
 Sum of Mulliken charges =  -0.00000

 Dipole moment (field-independent basis, Debye):
    X=             -1.9943    Y=              2.2926    Z=              1.5741  Tot=              3.4221
 Quadrupole moment (field-independent basis, Debye-Ang):
   XX=            -61.1834   YY=            -85.3613   ZZ=            -78.4477
   XY=            -10.6264   XZ=             -4.8045   YZ=              4.0704

  Exact polarizability: 214.220 -11.328 166.869  -2.552  -1.573 125.253
 Approx polarizability: 155.219  -6.921 141.981  -0.798  -2.489 112.906

 ******    1 imaginary frequencies (negative Signs) ******

                      1                      2                      3
                      A                      A                      A
 Frequencies --   -381.6245                52.7860                60.3852
 Red. masses --      6.7516                 3.5774                 5.3834
 Frc consts  --      0.5793                 0.0059                 0.0116
 IR Inten    --   1038.4208                 4.8827                 6.3243

                      4                      5                      6
                      A                      A                      A
 Frequencies --     90.0128               109.3485               119.3931
 Red. masses --      2.5514                 2.6997                 1.9692
 Frc consts  --      0.0122                 0.0190                 0.0165
 IR Inten    --      2.2953                 4.0910                 8.7838

                      7                      8                      9
                      A                      A                      A
 Frequencies --    127.0606               162.6039               170.7797
 Red. masses --      2.6144                 1.3654                 2.0434
 Frc consts  --      0.0249                 0.0213                 0.0351
 IR Inten    --     34.7741                 0.8150                 2.4000

                     10                     11                     12
                      A                      A                      A
 Frequencies --    180.8592               196.7609               221.5682
 Red. masses --      2.9726                 2.0304                 3.7987
 Frc consts  --      0.0573                 0.0463                 0.1099
 IR Inten    --     12.7578                 5.6237                 6.5434

                     13                     14                     15
                      A                      A                      A
 Frequencies --    242.2872               266.4670               318.8917
 Red. masses --      3.3605                 2.5823                 4.1521
 Frc consts  --      0.1162                 0.1080                 0.2488
 IR Inten    --     17.3980                19.4524                23.0609

                     16                     17                     18
                      A                      A                      A
 Frequencies --    339.6899               402.5663               462.5767
 Red. masses --      4.5102                 3.4897                 3.8956
 Frc consts  --      0.3066                 0.3332                 0.4911
 IR Inten    --      1.7515                15.6778               154.2042

                     19                     20                     21
                      A                      A                      A
 Frequencies --    509.5049               625.3045               665.7278
 Red. masses --      8.0704                 2.5397                 6.3374
 Frc consts  --      1.2344                 0.5851                 1.6548
 IR Inten    --     42.0250                 9.8139                12.4890

                     22                     23                     24
                      A                      A                      A
 Frequencies --    694.2820               774.4244               806.0842
 Red. masses --      2.3142                 8.3853                 3.9477
 Frc consts  --      0.6573                 2.9630                 1.5113
 IR Inten    --     36.4881                45.9736               129.0031

                     25                     26                     27
                      A                      A                      A
 Frequencies --    928.6975              1012.8869              1051.8916
 Red. masses --      3.7342                 1.1180                 1.3199
 Frc consts  --      1.8975                 0.6758                 0.8605
 IR Inten    --     51.8527                19.3264               133.9748

                     28                     29                     30
                      A                      A                      A
 Frequencies --   1062.3613              1082.6494              1089.1103
 Red. masses --      1.8907                 3.0600                 1.4798
 Frc consts  --      1.2572                 2.1132                 1.0342
 IR Inten    --     16.1159               267.9612                34.9278

                     31                     32                     33
                      A                      A                      A
 Frequencies --   1133.2724              1162.7523              1169.2487
 Red. masses --      1.2295                 1.1565                 1.4024
 Frc consts  --      0.9303                 0.9212                 1.1296
 IR Inten    --      0.9891                81.1080                 6.6173

                     34                     35                     36
                      A                      A                      A
 Frequencies --   1212.8200              1234.3197              1252.7377
 Red. masses --      1.4258                 2.9909                 1.2923
 Frc consts  --      1.2357                 2.6848                 1.1949
 IR Inten    --     54.0373               146.8523                21.5628

                     37                     38                     39
                      A                      A                      A
 Frequencies --   1315.4686              1347.8083              1418.7674
 Red. masses --      5.0516                 1.3130                 3.4846
 Frc consts  --      5.1504                 1.4054                 4.1326
 IR Inten    --     35.8372                 9.4825              1204.2056

                     40                     41                     42
                      A                      A                      A
 Frequencies --   1441.0279              1447.1366              1465.0127
 Red. masses --      2.1315                 1.1605                 1.2203
 Frc consts  --      2.6078                 1.4319                 1.5432
 IR Inten    --     11.0071                10.0237                27.5505

                     43                     44                     45
                      A                      A                      A
 Frequencies --   1475.4842              1484.1695              1487.6328
 Red. masses --      1.2435                 1.0731                 1.0609
 Frc consts  --      1.5950                 1.3927                 1.3834
 IR Inten    --     56.6048                 5.1770                23.8180

                     46                     47                     48
                      A                      A                      A
 Frequencies --   1491.2095              1501.4338              1506.1974
 Red. masses --      1.0406                 1.0526                 1.0339
 Frc consts  --      1.3634                 1.3980                 1.3820
 IR Inten    --     19.2236                18.4159                13.5299

                     49                     50                     51
                      A                      A                      A
 Frequencies --   1535.2053              1616.8234              1648.4657
 Red. masses --      1.7160                 5.6202                 1.1027
 Frc consts  --      2.3829                 8.6562                 1.7655
 IR Inten    --    227.9759               663.9211                65.1893

                     52                     53                     54
                      A                      A                      A
 Frequencies --   3029.3847              3042.1124              3064.6339
 Red. masses --      1.0457                 1.0385                 1.0342
 Frc consts  --      5.6539                 5.6625                 5.7227
 IR Inten    --     90.8655               108.3191                54.2713

                     55                     56                     57
                      A                      A                      A
 Frequencies --   3096.5914              3104.6153              3139.9955
 Red. masses --      1.1015                 1.0967                 1.1045
 Frc consts  --      6.2231                 6.2282                 6.4161
 IR Inten    --     73.5703                16.9273                18.7585

                     58                     59                     60
                      A                      A                      A
 Frequencies --   3165.0025              3174.4645              3176.9514
 Red. masses --      1.1051                 1.0997                 1.0986
 Frc consts  --      6.5223                 6.5294                 6.5330
 IR Inten    --     14.8750                11.3958                12.3302

                     61                     62                     63
                      A                      A                      A
 Frequencies --   3210.2028              3488.4527              3596.3215
 Red. masses --      1.0911                 1.0552                 1.0928
 Frc consts  --      6.6247                 7.5659                 8.3277
 IR Inten    --      0.2075                53.4684                74.7001

 - Thermochemistry -
 -------------------
 Temperature   298.150 Kelvin.  Pressure   1.00000 Atm.
 Atom     1 has atomic number  6 and mass  12.00000

 Molecular mass:   198.03267 amu.
 Principal axes and moments of inertia in atomic units:
                           1         2         3
     Eigenvalues --  1507.494163406.077864342.05740
           X            0.99907  -0.04014  -0.01545
           Y            0.04052   0.99887   0.02481
           Z            0.01443  -0.02541   0.99957
 This molecule is an asymmetric top.
 Rotational symmetry number  1.
 Warning -- assumption of classical behavior for rotation
           may cause significant error
 Rotational temperatures (Kelvin)      0.05746     0.02543     0.01995
 Rotational constants (GHZ):           1.19718     0.52986     0.41564
    1 imaginary frequencies ignored.
 Zero-point vibrational energy     487255.1 (Joules/Mol)
                                  116.45675 (Kcal/Mol)
 Warning -- explicit consideration of  18 degrees of freedom as
           vibrations may cause significant error
 Vibrational temperatures:     75.95    86.88   129.51   157.33   171.78
          (Kelvin)            182.81   233.95   245.71   260.22   283.10
                              318.79   348.60   383.39   458.81   488.74
                              579.20   665.54   733.06   899.67   957.83
                              998.92  1114.22  1159.78  1336.19  1457.32
                             1513.44  1528.50  1557.69  1566.99  1630.53
                             1672.94  1682.29  1744.98  1775.91  1802.41
                             1892.67  1939.20  2041.29  2073.32  2082.11
                             2107.83  2122.89  2135.39  2140.37  2145.52
                             2160.23  2167.08  2208.82  2326.25  2371.77
                             4358.61  4376.92  4409.32  4455.30  4466.85
                             4517.75  4553.73  4567.35  4570.92  4618.77
                             5019.11  5174.30

 Zero-point correction=                           0.185586 (Hartree/Particle)
 Thermal correction to Energy=                    0.199273
 Thermal correction to Enthalpy=                  0.200217
 Thermal correction to Gibbs Free Energy=         0.144369
 Sum of electronic and zero-point Energies=          -1340.814364
 Sum of electronic and thermal Energies=             -1340.800677
 Sum of electronic and thermal Enthalpies=           -1340.799732
 Sum of electronic and thermal Free Energies=        -1340.855581

                     E (Thermal)             CV                S
                      KCal/Mol        Cal/Mol-Kelvin    Cal/Mol-Kelvin
 Total                  125.046             46.341            117.543
 Electronic               0.000              0.000              0.000
 Translational            0.889              2.981             41.755
 Rotational               0.889              2.981             31.478
 Vibrational            123.268             40.379             44.310
 Vibration     1          0.596              1.976              4.710
 Vibration     2          0.597              1.973              4.445
 Vibration     3          0.602              1.956              3.660
 Vibration     4          0.606              1.942              3.280
 Vibration     5          0.609              1.933              3.110
 Vibration     6          0.611              1.926              2.990
 Vibration     7          0.623              1.888              2.519
 Vibration     8          0.626              1.878              2.427
 Vibration     9          0.630              1.866              2.320
 Vibration    10          0.636              1.844              2.163
 Vibration    11          0.648              1.808              1.946
 Vibration    12          0.658              1.775              1.786
 Vibration    13          0.672              1.735              1.619
 Vibration    14          0.705              1.637              1.316
 Vibration    15          0.720              1.596              1.214
 Vibration    16          0.768              1.465              0.953
 Vibration    17          0.820              1.333              0.759
 Vibration    18          0.865              1.229              0.635

 Optimization completed.
    -- Stationary point found.
 Normal termination of Gaussian 16 at Thu Feb 25 15:16:59 2021.
