 Gaussian 16, Revision A.03,
 Gaussian 16:  ES64L-G16RevA.03 25-Dec-2016

 ----------------------------------------------------------------------
 # wB97XD def2tzvp, opt=(ts, noeigen, calcfc, maxcycles=70, maxstep=3),
  freq=noraman, scrf=(iefpcm, solvent=water)
 ----------------------------------------------------------------------

 -----------------------
 3_iteration/TS-83-3.out
 -----------------------
 Symbolic Z-matrix:
 Charge =  0 Multiplicity = 1

 SCF Done:  E(RwB97XD) =  -844.595689993     A.U. after   15 cycles
 Optimization completed.
    -- Stationary point found.
 Normal termination of Gaussian 16 at Mon Feb  1 02:35:39 2021.

 ---------------------------------------------------------------------
 #N Geom=AllCheck Guess=TCheck SCRF=Check GenChk RwB97XD/def2TZVP Freq
 ---------------------------------------------------------------------

 Structure from the checkpoint file:  "/beegfs/scratch/user/q/tla25/Gau-29911.chk"
 -----------------------
 3_iteration/TS-83-3.out
 -----------------------
 Charge =  0 Multiplicity = 1

                         Standard orientation:
 ---------------------------------------------------------------------
 Center     Atomic      Atomic             Coordinates (Angstroms)
 Number     Number       Type             X           Y           Z
 ---------------------------------------------------------------------
      1          6           0        0.734557    0.989671   -0.322480
      2          6           0        1.450083    2.235164   -0.323520
      3          8           0        0.917459    3.355332   -0.149200
      4          6           0       -0.689363    1.008317   -0.416240
      5          6           0       -2.659077    2.230970    1.441730
      6          1           0       -2.792759    2.699200    2.418560
      7          1           0       -3.060760    2.895629    0.680190
      8          1           0       -3.213494    1.292518    1.420120
      9          7           0       -1.253247    1.964655    1.161470
     10          1           0       -0.700849    2.804017    0.983290
     11          1           0       -0.808645    1.456886    1.915260
     12          6           0       -1.409659   -0.301846   -0.225540
     13          6           0       -1.242537   -1.042905    0.944720
     14          6           0       -1.890842   -2.250617    1.128170
     15          6           0       -2.720101   -2.754820    0.134500
     16          6           0       -2.897573   -2.030851   -1.032260
     17          6           0       -2.255577   -0.811339   -1.205200
     18          1           0       -0.580028   -0.683423    1.721340
     19          1           0       -1.744651   -2.803057    2.047730
     20          1           0       -3.224358   -3.702782    0.272620
     21          1           0       -3.541432   -2.410393   -1.815630
     22          1           0       -2.412399   -0.268819   -2.126980
     23          6           0       -1.341946    1.924575   -1.433160
     24          1           0       -1.149355    1.522625   -2.429460
     25          1           0       -2.421717    1.986441   -1.300170
     26          1           0       -0.909320    2.918186   -1.384870
     27          6           0        1.486701   -0.277896   -0.123190
     28          6           0        2.288822   -0.486623    1.003400
     29          6           0        2.984506   -1.671731    1.190000
     30          6           0        2.888149   -2.692601    0.254350
     31          6           0        2.101418   -2.506084   -0.873840
     32          6           0        1.422524   -1.311836   -1.061620
     33          1           0        2.353149    0.294087    1.753060
     34          1           0        3.592406   -1.804099    2.076880
     35          1           0        3.423012   -3.622470    0.401670
     36          1           0        2.022961   -3.291094   -1.616300
     37          1           0        0.817374   -1.174238   -1.949730
     38          7           0        2.809203    2.206628   -0.536500
     39          1           0        3.300066    1.331540   -0.488960
     40          1           0        3.318940    3.020320   -0.238660
 ---------------------------------------------------------------------

 SCF Done:  E(RwB97XD) =  -844.595689993     A.U. after    1 cycles

 The electronic state is 1-A.
 Alpha  occ. eigenvalues --  -19.19256 -14.46928 -14.42805 -10.36774 -10.35137
 Alpha  occ. eigenvalues --  -10.31314 -10.30283 -10.29334 -10.29181 -10.29168
 Alpha  occ. eigenvalues --  -10.29128 -10.29084 -10.29049 -10.28515 -10.28452
 Alpha  occ. eigenvalues --  -10.28332 -10.28082 -10.27973 -10.27044 -10.24986
 Alpha  occ. eigenvalues --   -1.11393  -1.02829  -0.98405  -0.97272  -0.95785
 Alpha  occ. eigenvalues --   -0.91253  -0.86153  -0.85270  -0.84377  -0.83502
 Alpha  occ. eigenvalues --   -0.79289  -0.78000  -0.73170  -0.70437  -0.69682
 Alpha  occ. eigenvalues --   -0.68957  -0.67509  -0.64229  -0.62232  -0.61062
 Alpha  occ. eigenvalues --   -0.60846  -0.58706  -0.56469  -0.55885  -0.55434
 Alpha  occ. eigenvalues --   -0.54667  -0.53889  -0.53216  -0.52283  -0.51867
 Alpha  occ. eigenvalues --   -0.50963  -0.50216  -0.49565  -0.48394  -0.47971
 Alpha  occ. eigenvalues --   -0.47507  -0.47084  -0.46540  -0.46002  -0.45405
 Alpha  occ. eigenvalues --   -0.43240  -0.42667  -0.42014  -0.41628  -0.40369
 Alpha  occ. eigenvalues --   -0.35130  -0.34546  -0.33880  -0.33267  -0.32757
 Alpha  occ. eigenvalues --   -0.31955  -0.25254
 Alpha virt. eigenvalues --    0.02667   0.04647   0.05746   0.06083   0.08657
 Alpha virt. eigenvalues --    0.10338   0.12457   0.13196   0.13575   0.14064
 Alpha virt. eigenvalues --    0.14766   0.15922   0.16364   0.16734   0.17618

 Mulliken charges:
               1
     1  C   -0.218577
     2  C    0.324306
     3  O   -0.594416
     4  C    0.262932
     5  C   -0.297201
     6  H    0.150044
     7  H    0.154885
     8  H    0.151374
     9  N   -0.305607
    10  H    0.272774
    11  H    0.258549
    12  C    0.122413
    13  C   -0.275583
    14  C   -0.172211
    15  C   -0.132236
    16  C   -0.156764
    17  C   -0.227363
    18  H    0.168281
    19  H    0.141251
    20  H    0.143809
    21  H    0.141594
    22  H    0.152639
    23  C   -0.443277
    24  H    0.143754
    25  H    0.147611
    26  H    0.166048
    27  C    0.145370
    28  C   -0.313789
    29  C   -0.122526
    30  C   -0.144433
    31  C   -0.175907
    32  C   -0.209283
    33  H    0.142478
    34  H    0.137311
    35  H    0.139621
    36  H    0.134660
    37  H    0.141383
    38  N   -0.477976
    39  H    0.268019
    40  H    0.256042
 Sum of Mulliken charges =  -0.00000

 Dipole moment (field-independent basis, Debye):
    X=             -3.5742    Y=             -2.4304    Z=              3.4297  Tot=              5.5177
 Quadrupole moment (field-independent basis, Debye-Ang):
   XX=           -106.4887   YY=           -126.8493   ZZ=           -109.6464
   XY=             -5.9937   XZ=              4.0140   YZ=              7.3615

  Exact polarizability: 319.416   3.614 337.705  17.315   2.531 274.509
 Approx polarizability: 240.391   1.484 267.016  18.882   3.230 238.608

 ******    1 imaginary frequencies (negative Signs) ******

                      1                      2                      3
                      A                      A                      A
 Frequencies --   -383.4650                35.6658                44.0362
 Red. masses --      5.6991                 4.2986                 4.4815
 Frc consts  --      0.4938                 0.0032                 0.0051
 IR Inten    --    922.1214                 3.3825                 0.3845

                      4                      5                      6
                      A                      A                      A
 Frequencies --     59.6359                69.1760                72.4079
 Red. masses --      3.5564                 3.5381                 3.1461
 Frc consts  --      0.0075                 0.0100                 0.0097
 IR Inten    --      6.8298                 0.4090                 1.0641

                      7                      8                      9
                      A                      A                      A
 Frequencies --    103.9873               108.0682               130.1144
 Red. masses --      4.0550                 3.7715                 2.5841
 Frc consts  --      0.0258                 0.0260                 0.0258
 IR Inten    --      7.1296                 7.7513                16.1448

                     10                     11                     12
                      A                      A                      A
 Frequencies --    142.0344               199.2277               210.0981
 Red. masses --      2.1566                 1.9650                 3.9888
 Frc consts  --      0.0256                 0.0460                 0.1037
 IR Inten    --      2.1438                17.5611                 8.4279

                     13                     14                     15
                      A                      A                      A
 Frequencies --    235.0721               275.8793               282.1269
 Red. masses --      3.5388                 3.6361                 3.1552
 Frc consts  --      0.1152                 0.1631                 0.1480
 IR Inten    --      0.8468                15.9881                28.8328

                     16                     17                     18
                      A                      A                      A
 Frequencies --    297.3108               324.2395               329.1112
 Red. masses --      3.0411                 2.0248                 1.7503
 Frc consts  --      0.1584                 0.1254                 0.1117
 IR Inten    --     18.9961                46.7872                10.7008

                     19                     20                     21
                      A                      A                      A
 Frequencies --    352.0246               380.9358               402.1524
 Red. masses --      3.0802                 1.4548                 3.6223
 Frc consts  --      0.2249                 0.1244                 0.3452
 IR Inten    --      3.9520               380.2292                84.3147

                     22                     23                     24
                      A                      A                      A
 Frequencies --    415.3382               423.6798               428.1764
 Red. masses --      2.5691                 2.8886                 2.7877
 Frc consts  --      0.2611                 0.3055                 0.3011
 IR Inten    --     18.1590                 1.6009                 2.4194

                     25                     26                     27
                      A                      A                      A
 Frequencies --    463.6720               489.7060               524.4783
 Red. masses --      3.4246                 1.4505                 2.7768
 Frc consts  --      0.4338                 0.2049                 0.4500
 IR Inten    --      8.8168                 4.1024                17.4287

                     28                     29                     30
                      A                      A                      A
 Frequencies --    546.2668               581.9922               614.8791
 Red. masses --      4.0648                 3.3172                 3.0847
 Frc consts  --      0.7147                 0.6620                 0.6871
 IR Inten    --      5.7744                90.7935                79.2424

                     31                     32                     33
                      A                      A                      A
 Frequencies --    638.5951               639.4792               666.2961
 Red. masses --      6.3318                 6.1312                 4.9181
 Frc consts  --      1.5214                 1.4772                 1.2864
 IR Inten    --      0.4829                 2.8703                14.7033

                     34                     35                     36
                      A                      A                      A
 Frequencies --    704.0655               709.0118               728.7000
 Red. masses --      1.7894                 2.7261                 1.5235
 Frc consts  --      0.5226                 0.8074                 0.4766
 IR Inten    --     33.4759                19.3024                62.9432

                     37                     38                     39
                      A                      A                      A
 Frequencies --    730.6595               790.5347               797.3371
 Red. masses --      1.4530                 3.6041                 3.1194
 Frc consts  --      0.4570                 1.3271                 1.1684
 IR Inten    --    109.9204                17.4494                89.4021

                     40                     41                     42
                      A                      A                      A
 Frequencies --    802.1633               841.8809               876.6047
 Red. masses --      2.6539                 2.8975                 1.2483
 Frc consts  --      1.0062                 1.2100                 0.5652
 IR Inten    --     36.7199                 6.4503                 2.6917

                     43                     44                     45
                      A                      A                      A
 Frequencies --    877.7090               949.5189               960.8095
 Red. masses --      1.2494                 1.4517                 1.4317
 Frc consts  --      0.5671                 0.7712                 0.7787
 IR Inten    --      1.0772                 1.4485                 6.8992

                     46                     47                     48
                      A                      A                      A
 Frequencies --    983.4915              1012.1866              1014.6214
 Red. masses --      3.1443                 1.3741                 1.3883
 Frc consts  --      1.7919                 0.8294                 0.8420
 IR Inten    --     37.1291                 2.4295                 0.3746

                     49                     50                     51
                      A                      A                      A
 Frequencies --   1021.6688              1023.5620              1025.6927
 Red. masses --      1.4382                 1.3527                 3.9033
 Frc consts  --      0.8845                 0.8350                 2.4194
 IR Inten    --      1.4055                 3.0963                 3.1086

                     52                     53                     54
                      A                      A                      A
 Frequencies --   1027.4449              1031.3088              1034.3821
 Red. masses --      3.8510                 1.3589                 1.7748
 Frc consts  --      2.3952                 0.8515                 1.1188
 IR Inten    --      1.9530                 7.7890               146.8679

                     55                     56                     57
                      A                      A                      A
 Frequencies --   1051.2022              1060.8740              1065.0433
 Red. masses --      1.4136                 2.1877                 1.8935
 Frc consts  --      0.9203                 1.4507                 1.2655
 IR Inten    --     49.2290                62.5459                59.5239

                     58                     59                     60
                      A                      A                      A
 Frequencies --   1068.3511              1092.5084              1104.4870
 Red. masses --      2.1498                 2.1453                 1.8100
 Frc consts  --      1.4457                 1.5087                 1.3009
 IR Inten    --      9.8831                68.4680                53.9716

                     61                     62                     63
                      A                      A                      A
 Frequencies --   1109.1996              1125.1907              1138.5167
 Red. masses --      1.6296                 1.7641                 2.2423
 Frc consts  --      1.1813                 1.3159                 1.7125
 IR Inten    --     51.1577                 8.7906                10.8355

                     64                     65                     66
                      A                      A                      A
 Frequencies --   1179.6564              1185.7696              1206.7030
 Red. masses --      1.1270                 1.1261                 1.1848
 Frc consts  --      0.9241                 0.9329                 1.0165
 IR Inten    --      0.6574                 0.2282                11.3104

                     67                     68                     69
                      A                      A                      A
 Frequencies --   1207.0451              1222.5439              1243.0431
 Red. masses --      1.2958                 1.1351                 3.8871
 Frc consts  --      1.1123                 0.9996                 3.5387
 IR Inten    --     42.2673                 8.3641                19.9553

                     70                     71                     72
                      A                      A                      A
 Frequencies --   1302.7484              1322.1600              1324.9901
 Red. masses --      4.4693                 4.4545                 3.2091
 Frc consts  --      4.4690                 4.5880                 3.3194
 IR Inten    --     15.9160                35.9645                29.1177

                     73                     74                     75
                      A                      A                      A
 Frequencies --   1338.2482              1355.1582              1367.9728
 Red. masses --      1.4609                 1.5629                 1.5200
 Frc consts  --      1.5415                 1.6910                 1.6759
 IR Inten    --     12.5359                67.8170                 6.8130

                     76                     77                     78
                      A                      A                      A
 Frequencies --   1379.1749              1387.6319              1413.2172
 Red. masses --      3.2046                 3.0427                 1.4874
 Frc consts  --      3.5913                 3.4519                 1.7502
 IR Inten    --    158.3358              1049.3396               115.0552

                     79                     80                     81
                      A                      A                      A
 Frequencies --   1458.8998              1485.2854              1488.0239
 Red. masses --      1.2088                 1.6577                 1.6613
 Frc consts  --      1.5159                 2.1547                 2.1673
 IR Inten    --     19.8240                33.7686                30.1440

                     82                     83                     84
                      A                      A                      A
 Frequencies --   1493.6501              1499.4134              1507.0827
 Red. masses --      1.1924                 1.2888                 1.0683
 Frc consts  --      1.5674                 1.7072                 1.4295
 IR Inten    --      0.9030                46.7083                 9.8436

                     85                     86                     87
                      A                      A                      A
 Frequencies --   1509.2743              1538.8398              1548.6187
 Red. masses --      1.1029                 2.3673                 2.2810
 Frc consts  --      1.4801                 3.3028                 3.2230
 IR Inten    --     21.6852                57.8280                 9.3152

                     88                     89                     90
                      A                      A                      A
 Frequencies --   1590.9486              1622.0299              1639.0539
 Red. masses --      3.0809                 1.5438                 5.6629
 Frc consts  --      4.5946                 2.3931                 8.9635
 IR Inten    --    771.9887               392.7519                11.9209

                     91                     92                     93
                      A                      A                      A
 Frequencies --   1653.7299              1660.2019              1667.8275
 Red. masses --      5.5807                 1.1045                 5.8145
 Frc consts  --      8.9923                 1.7937                 9.5293
 IR Inten    --      8.2485                67.5094                16.0011

                     94                     95                     96
                      A                      A                      A
 Frequencies --   1678.0221              3059.7404              3069.7461
 Red. masses --      5.7906                 1.0358                 1.0410
 Frc consts  --      9.6067                 5.7133                 5.7795
 IR Inten    --      0.1788                67.5113                31.1216

                     97                     98                     99
                      A                      A                      A
 Frequencies --   3131.5388              3134.8122              3166.2624
 Red. masses --      1.1033                 1.1006                 1.1034
 Frc consts  --      6.3749                 6.3725                 6.5177
 IR Inten    --     23.6087                33.1621                18.3953

                    100                    101                    102
                      A                      A                      A
 Frequencies --   3182.2117              3187.4898              3195.6080
 Red. masses --      1.0868                 1.0870                 1.0858
 Frc consts  --      6.4842                 6.5070                 6.5328
 IR Inten    --     12.2397                 1.9787                 1.7321

                    103                    104                    105
                      A                      A                      A
 Frequencies --   3198.0652              3199.1195              3203.0723
 Red. masses --      1.0911                 1.0982                 1.0889
 Frc consts  --      6.5749                 6.6220                 6.5819
 IR Inten    --     12.7723                 3.5251                 5.4271

                    106                    107                    108
                      A                      A                      A
 Frequencies --   3204.1850              3212.4607              3216.9732
 Red. masses --      1.0948                 1.0931                 1.0986
 Frc consts  --      6.6225                 6.6462                 6.6985
 IR Inten    --     50.7767                30.6118                22.9996

                    109                    110                    111
                      A                      A                      A
 Frequencies --   3221.8141              3232.2531              3434.7701
 Red. masses --      1.0969                 1.0938                 1.0642
 Frc consts  --      6.7086                 6.7326                 7.3975
 IR Inten    --     22.1655                10.6732               126.3858

                    112                    113                    114
                      A                      A                      A
 Frequencies --   3592.6632              3613.6835              3731.9579
 Red. masses --      1.0849                 1.0461                 1.1023
 Frc consts  --      8.2500                 8.0489                 9.0455
 IR Inten    --     42.8346                54.6398                71.1667

 - Thermochemistry -
 -------------------
 Temperature   298.150 Kelvin.  Pressure   1.00000 Atm.
 Atom     1 has atomic number  6 and mass  12.00000

 Molecular mass:   268.15756 amu.
 Principal axes and moments of inertia in atomic units:
                           1         2         3
     Eigenvalues --  4571.458604888.125367750.22329
           X            0.97866  -0.20547   0.00360
           Y            0.20545   0.97865   0.00503
           Z           -0.00456  -0.00418   0.99998
 This molecule is an asymmetric top.
 Rotational symmetry number  1.
 Warning -- assumption of classical behavior for rotation
           may cause significant error
 Rotational temperatures (Kelvin)      0.01895     0.01772     0.01118
 Rotational constants (GHZ):           0.39478     0.36921     0.23286
    1 imaginary frequencies ignored.
 Zero-point vibrational energy     890679.5 (Joules/Mol)
                                  212.87751 (Kcal/Mol)
 Warning -- explicit consideration of  29 degrees of freedom as
           vibrations may cause significant error
 Vibrational temperatures:     51.32    63.36    85.80    99.53   104.18
          (Kelvin)            149.61   155.49   187.21   204.36   286.64
                              302.28   338.22   396.93   405.92   427.76
                              466.51   473.52   506.48   548.08   578.61
                              597.58   609.58   616.05   667.12   704.58
                              754.61   785.96   837.36   884.67   918.80
                              920.07   958.65  1012.99  1020.11  1048.44
                             1051.26  1137.40  1147.19  1154.13  1211.28
                             1261.24  1262.83  1366.15  1382.39  1415.02
                             1456.31  1459.81  1469.95  1472.68  1475.74
                             1478.26  1483.82  1488.25  1512.45  1526.36
                             1532.36  1537.12  1571.88  1589.11  1595.89
                             1618.90  1638.07  1697.26  1706.06  1736.18
                             1736.67  1758.97  1788.46  1874.36  1902.29
                             1906.37  1925.44  1949.77  1968.21  1984.33
                             1996.49  2033.30  2099.03  2136.99  2140.93
                             2149.03  2157.32  2168.36  2171.51  2214.05
                             2228.12  2289.02  2333.74  2358.23  2379.35
                             2388.66  2399.63  2414.30  4402.28  4416.68
                             4505.59  4510.30  4555.55  4578.49  4586.09
                             4597.77  4601.30  4602.82  4608.51  4610.11
                             4622.01  4628.51  4635.47  4650.49  4941.87
                             5169.04  5199.28  5369.45

 Zero-point correction=                           0.339242 (Hartree/Particle)
 Thermal correction to Energy=                    0.357865
 Thermal correction to Enthalpy=                  0.358809
 Thermal correction to Gibbs Free Energy=         0.292383
 Sum of electronic and zero-point Energies=           -844.256448
 Sum of electronic and thermal Energies=              -844.237825
 Sum of electronic and thermal Enthalpies=            -844.236881
 Sum of electronic and thermal Free Energies=         -844.303307

                     E (Thermal)             CV                S
                      KCal/Mol        Cal/Mol-Kelvin    Cal/Mol-Kelvin
 Total                  224.564             72.756            139.806
 Electronic               0.000              0.000              0.000
 Translational            0.889              2.981             42.658
 Rotational               0.889              2.981             33.515
 Vibrational            222.786             66.795             63.632
 Vibration     1          0.594              1.982              5.486
 Vibration     2          0.595              1.980              5.069
 Vibration     3          0.597              1.974              4.469
 Vibration     4          0.598              1.969              4.177
 Vibration     5          0.599              1.967              4.087
 Vibration     6          0.605              1.946              3.378
 Vibration     7          0.606              1.943              3.303
 Vibration     8          0.612              1.923              2.944
 Vibration     9          0.616              1.911              2.776
 Vibration    10          0.637              1.841              2.140
 Vibration    11          0.642              1.825              2.043
 Vibration    12          0.655              1.787              1.840
 Vibration    13          0.678              1.718              1.559
 Vibration    14          0.681              1.707              1.521
 Vibration    15          0.691              1.679              1.432
 Vibration    16          0.709              1.627              1.289
 Vibration    17          0.712              1.617              1.264
 Vibration    18          0.729              1.571              1.157
 Vibration    19          0.751              1.511              1.035
 Vibration    20          0.768              1.465              0.955
 Vibration    21          0.779              1.437              0.908
 Vibration    22          0.786              1.419              0.880
 Vibration    23          0.790              1.409              0.865
 Vibration    24          0.821              1.331              0.755
 Vibration    25          0.846              1.273              0.684
 Vibration    26          0.879              1.196              0.600
 Vibration    27          0.901              1.148              0.552
 Vibration    28          0.939              1.070              0.482
 Vibration    29          0.974              1.000              0.425

 Optimization completed.
    -- Stationary point found.
 Normal termination of Gaussian 16 at Mon Feb  1 05:29:20 2021.
