 Gaussian 16, Revision A.03,
 Gaussian 16:  ES64L-G16RevA.03 25-Dec-2016

 ----------------------------------------------------------------------
 # wB97XD def2tzvp, opt=(ts, noeigen, calcfc, maxcycles=70, maxstep=8),
  freq=noraman, scrf=(iefpcm, solvent=water)
 ----------------------------------------------------------------------

 ------------------------
 1_iteration/TS-876-1.out
 ------------------------
 Symbolic Z-matrix:
 Charge =  0 Multiplicity = 1

 SCF Done:  E(RwB97XD) =  -1321.56482755     A.U. after   15 cycles
 SCF Done:  E(RwB97XD) =  -1321.56482758     A.U. after    7 cycles
 Optimization completed.
    -- Stationary point found.
 Normal termination of Gaussian 16 at Thu Feb 25 14:35:50 2021.

 ---------------------------------------------------------------------
 #N Geom=AllCheck Guess=TCheck SCRF=Check GenChk RwB97XD/def2TZVP Freq
 ---------------------------------------------------------------------

 Structure from the checkpoint file:  "/beegfs/scratch/user/q/tla25/Gau-18158.chk"
 ------------------------
 1_iteration/TS-876-1.out
 ------------------------
 Charge =  0 Multiplicity = 1

                         Standard orientation:
 ---------------------------------------------------------------------
 Center     Atomic      Atomic             Coordinates (Angstroms)
 Number     Number       Type             X           Y           Z
 ---------------------------------------------------------------------
      1          6           0       -0.329852    0.378642   -0.131870
      2          6           0       -1.474095   -0.477928   -0.289718
      3          8           0       -1.421169   -1.607997   -0.755218
      4          6           0        0.904208   -0.109460   -0.507604
      5          6           0        2.940843   -1.865912    0.618247
      6          1           0        3.264267   -2.483440    1.456953
      7          1           0        2.745240   -2.507303   -0.240053
      8          1           0        3.734201   -1.166422    0.364199
      9          7           0        1.727366   -1.117287    0.937626
     10          1           0        0.968003   -1.732823    1.205697
     11          1           0        1.874887   -0.455950    1.691620
     12         17           0        2.211974    0.991226   -0.871508
     13          1           0        0.890416   -0.962338   -1.171471
     14         17           0       -0.468028    1.892468    0.722616
     15          8           0       -2.629679    0.073256    0.114226
     16          6           0       -3.794519   -0.733208   -0.028667
     17          1           0       -4.615435   -0.135413    0.358203
     18          1           0       -3.971774   -0.977320   -1.076006
     19          1           0       -3.701180   -1.655647    0.544252
 ---------------------------------------------------------------------

 SCF Done:  E(RwB97XD) =  -1321.56482758     A.U. after    1 cycles

 The electronic state is 1-A.
 Alpha  occ. eigenvalues -- -101.70833-101.69275 -19.29060 -19.22125 -14.48554
 Alpha  occ. eigenvalues --  -10.40972 -10.39559 -10.32998 -10.31935 -10.31817
 Alpha  occ. eigenvalues --   -9.59409  -9.57791  -7.34062  -7.33197  -7.33143
 Alpha  occ. eigenvalues --   -7.32439  -7.31569  -7.31561  -1.20609  -1.10907
 Alpha  occ. eigenvalues --   -1.04310  -0.99147  -0.94894  -0.85218  -0.82188
 Alpha  occ. eigenvalues --   -0.78855  -0.71233  -0.64531  -0.63614  -0.61408
 Alpha  occ. eigenvalues --   -0.57618  -0.57214  -0.56354  -0.54633  -0.53449
 Alpha  occ. eigenvalues --   -0.51762  -0.49351  -0.48800  -0.48116  -0.46606
 Alpha  occ. eigenvalues --   -0.44127  -0.42679  -0.41406  -0.39844  -0.39211
 Alpha  occ. eigenvalues --   -0.38535  -0.35897  -0.28086
 Alpha virt. eigenvalues --    0.04329   0.08402   0.10163   0.13260   0.13782
 Alpha virt. eigenvalues --    0.14757   0.15972   0.16301   0.17093   0.18051
 Alpha virt. eigenvalues --    0.19555   0.19813   0.20818   0.20991   0.22373

 Mulliken charges:
               1
     1  C   -0.167792
     2  C    0.415893
     3  O   -0.504150
     4  C   -0.019515
     5  C   -0.271014
     6  H    0.153668
     7  H    0.151717
     8  H    0.150349
     9  N   -0.349705
    10  H    0.285225
    11  H    0.285565
    12  Cl  -0.083543
    13  H    0.189227
    14  Cl  -0.149503
    15  O   -0.298768
    16  C   -0.191646
    17  H    0.141840
    18  H    0.131625
    19  H    0.130528
 Sum of Mulliken charges =  -0.00000

 Dipole moment (field-independent basis, Debye):
    X=              4.1320    Y=             -3.9553    Z=              3.3438  Tot=              6.6256
 Quadrupole moment (field-independent basis, Debye-Ang):
   XX=            -57.9115   YY=            -76.2840   ZZ=            -70.5983
   XY=             -6.9131   XZ=              3.9711   YZ=             -5.8314

  Exact polarizability: 183.500  -5.784 140.335   2.521   2.000 109.393
 Approx polarizability: 133.684  -2.497 121.761   0.410   4.203  98.406

 ******    1 imaginary frequencies (negative Signs) ******

                      1                      2                      3
                      A                      A                      A
 Frequencies --   -354.2855                46.2262                57.9043
 Red. masses --      6.6785                 4.5774                 2.5976
 Frc consts  --      0.4939                 0.0058                 0.0051
 IR Inten    --    958.1157                 1.2689                 3.9138

                      4                      5                      6
                      A                      A                      A
 Frequencies --     68.0387               109.5849               127.6200
 Red. masses --      2.9216                 4.6661                 2.3275
 Frc consts  --      0.0080                 0.0330                 0.0223
 IR Inten    --      8.2123                 7.6877                 5.7521

                      7                      8                      9
                      A                      A                      A
 Frequencies --    149.2281               163.5341               178.0268
 Red. masses --      2.4169                 1.9601                 1.4382
 Frc consts  --      0.0317                 0.0309                 0.0269
 IR Inten    --      2.0008                 2.2977                 2.7381

                     10                     11                     12
                      A                      A                      A
 Frequencies --    195.8892               207.1203               275.3189
 Red. masses --      6.8618                 5.0178                 3.9321
 Frc consts  --      0.1551                 0.1268                 0.1756
 IR Inten    --      0.8559                26.6904                12.0243

                     13                     14                     15
                      A                      A                      A
 Frequencies --    333.7186               354.3924               450.3245
 Red. masses --      4.3535                 5.7175                 8.3352
 Frc consts  --      0.2857                 0.4231                 0.9959
 IR Inten    --     33.3095                 6.4545               100.4289

                     16                     17                     18
                      A                      A                      A
 Frequencies --    469.2160               616.5112               673.4473
 Red. masses --     11.5341                 2.0547                 2.8001
 Frc consts  --      1.4962                 0.4601                 0.7482
 IR Inten    --     80.3302                15.0329                18.4257

                     19                     20                     21
                      A                      A                      A
 Frequencies --    754.1401               784.2266               834.3044
 Red. masses --      5.0964                10.9444                 4.3534
 Frc consts  --      1.7077                 3.9657                 1.7854
 IR Inten    --     66.4319                59.5400               150.1453

                     22                     23                     24
                      A                      A                      A
 Frequencies --    991.3203              1012.6657              1034.1355
 Red. masses --      3.5221                 1.1617                 1.1235
 Frc consts  --      2.0393                 0.7019                 0.7079
 IR Inten    --      8.5356                19.2919                98.0416

                     25                     26                     27
                      A                      A                      A
 Frequencies --   1071.2791              1114.1703              1149.3939
 Red. masses --      4.6716                 5.8830                 1.1307
 Frc consts  --      3.1588                 4.3028                 0.8801
 IR Inten    --    196.5255               264.8108                61.8446

                     28                     29                     30
                      A                      A                      A
 Frequencies --   1182.2846              1219.0969              1220.2571
 Red. masses --      1.2813                 1.5471                 1.4029
 Frc consts  --      1.0552                 1.3547                 1.2308
 IR Inten    --      1.6595                87.8681                21.1628

                     31                     32                     33
                      A                      A                      A
 Frequencies --   1239.9593              1329.0817              1345.4766
 Red. masses --      1.3582                 5.9407                 1.3316
 Frc consts  --      1.2303                 6.1829                 1.4203
 IR Inten    --     98.2938               868.7345                27.0839

                     34                     35                     36
                      A                      A                      A
 Frequencies --   1441.9470              1465.7051              1481.1290
 Red. masses --      3.3694                 1.3694                 1.1708
 Frc consts  --      4.1277                 1.7333                 1.5133
 IR Inten    --    766.8221               145.8025                93.0970

                     37                     38                     39
                      A                      A                      A
 Frequencies --   1482.2063              1491.5767              1496.0898
 Red. masses --      1.0819                 1.0406                 1.0842
 Frc consts  --      1.4004                 1.3640                 1.4297
 IR Inten    --     43.1133                16.7634                21.1624

                     40                     41                     42
                      A                      A                      A
 Frequencies --   1505.1002              1642.2227              1692.5931
 Red. masses --      1.0346                 1.0916                10.6697
 Frc consts  --      1.3808                 1.7346                18.0098
 IR Inten    --      9.5646                45.2596               510.6329

                     43                     44                     45
                      A                      A                      A
 Frequencies --   3065.4212              3068.1031              3142.9452
 Red. masses --      1.0307                 1.0343                 1.1070
 Frc consts  --      5.7064                 5.7363                 6.4425
 IR Inten    --     57.3137                46.0330                33.9777

                     46                     47                     48
                      A                      A                      A
 Frequencies --   3144.4231              3170.6690              3176.2897
 Red. masses --      1.1047                 1.1050                 1.1057
 Frc consts  --      6.4354                 6.5449                 6.5723
 IR Inten    --     16.6228                12.0745                23.0650

                     49                     50                     51
                      A                      A                      A
 Frequencies --   3222.6714              3523.9194              3607.6752
 Red. masses --      1.0910                 1.0506                 1.0967
 Frc consts  --      6.6759                 7.6866                 8.4098
 IR Inten    --      1.9658                27.6399                50.3581

 - Thermochemistry -
 -------------------
 Temperature   298.150 Kelvin.  Pressure   1.00000 Atm.
 Atom     1 has atomic number  6 and mass  12.00000

 Molecular mass:   185.00103 amu.
 Principal axes and moments of inertia in atomic units:
                           1         2         3
     Eigenvalues --  1344.225993039.719723779.72886
           X            0.99948  -0.02712   0.01742
           Y            0.02762   0.99920  -0.02899
           Z           -0.01662   0.02946   0.99943
 This molecule is an asymmetric top.
 Rotational symmetry number  1.
 Warning -- assumption of classical behavior for rotation
           may cause significant error
 Rotational temperatures (Kelvin)      0.06443     0.02849     0.02292
 Rotational constants (GHZ):           1.34259     0.59372     0.47748
    1 imaginary frequencies ignored.
 Zero-point vibrational energy     380284.4 (Joules/Mol)
                                   90.89014 (Kcal/Mol)
 Warning -- explicit consideration of  16 degrees of freedom as
           vibrations may cause significant error
 Vibrational temperatures:     66.51    83.31    97.89   157.67   183.62
          (Kelvin)            214.71   235.29   256.14   281.84   298.00
                              396.12   480.15   509.89   647.92   675.10
                              887.02   968.94  1085.04  1128.33  1200.38
                             1426.29  1457.00  1487.89  1541.33  1603.04
                             1653.72  1701.04  1754.01  1755.68  1784.02
                             1912.25  1935.84  2074.64  2108.82  2131.01
                             2132.56  2146.05  2152.54  2165.50  2362.79
                             2435.26  4410.46  4414.32  4522.00  4524.12
                             4561.89  4569.97  4636.71  5070.13  5190.64

 Zero-point correction=                           0.144843 (Hartree/Particle)
 Thermal correction to Energy=                    0.157033
 Thermal correction to Enthalpy=                  0.157977
 Thermal correction to Gibbs Free Energy=         0.104734
 Sum of electronic and zero-point Energies=          -1321.419985
 Sum of electronic and thermal Energies=             -1321.407795
 Sum of electronic and thermal Enthalpies=           -1321.406851
 Sum of electronic and thermal Free Energies=        -1321.460094

                     E (Thermal)             CV                S
                      KCal/Mol        Cal/Mol-Kelvin    Cal/Mol-Kelvin
 Total                   98.540             40.134            112.060
 Electronic               0.000              0.000              0.000
 Translational            0.889              2.981             41.552
 Rotational               0.889              2.981             31.113
 Vibrational             96.762             34.172             39.395
 Vibration     1          0.595              1.979              4.973
 Vibration     2          0.596              1.974              4.527
 Vibration     3          0.598              1.969              4.209
 Vibration     4          0.606              1.942              3.276
 Vibration     5          0.611              1.926              2.982
 Vibration     6          0.618              1.904              2.682
 Vibration     7          0.623              1.887              2.509
 Vibration     8          0.628              1.869              2.349
 Vibration     9          0.636              1.846              2.171
 Vibration    10          0.641              1.830              2.069
 Vibration    11          0.677              1.719              1.563
 Vibration    12          0.715              1.608              1.242
 Vibration    13          0.730              1.566              1.147
 Vibration    14          0.809              1.360              0.795
 Vibration    15          0.826              1.318              0.740
 Vibration    16          0.976              0.997              0.422

 Optimization completed.
    -- Stationary point found.
 Normal termination of Gaussian 16 at Thu Feb 25 14:46:35 2021.
