 Gaussian 16, Revision A.03,
 Gaussian 16:  ES64L-G16RevA.03 25-Dec-2016

 ----------------------------------------------------------------------
 # wB97XD def2tzvp, opt=(ts, noeigen, calcfc, maxcycles=70, maxstep=5),
  freq=noraman, scrf=(iefpcm, solvent=water)
 ----------------------------------------------------------------------

 ------------------------
 2_iteration/TS-895-2.out
 ------------------------
 Symbolic Z-matrix:
 Charge =  0 Multiplicity = 1

 SCF Done:  E(RwB97XD) =  -1073.14350975     A.U. after   14 cycles
 Optimization completed.
    -- Stationary point found.
 Normal termination of Gaussian 16 at Fri Feb 26 02:19:13 2021.

 ---------------------------------------------------------------------
 #N Geom=AllCheck Guess=TCheck SCRF=Check GenChk RwB97XD/def2TZVP Freq
 ---------------------------------------------------------------------

 Structure from the checkpoint file:  "/beegfs/scratch/user/q/tla25/Gau-8217.chk"
 ------------------------
 2_iteration/TS-895-2.out
 ------------------------
 Charge =  0 Multiplicity = 1

                         Standard orientation:
 ---------------------------------------------------------------------
 Center     Atomic      Atomic             Coordinates (Angstroms)
 Number     Number       Type             X           Y           Z
 ---------------------------------------------------------------------
      1          6           0        1.527059    0.261932   -1.001841
      2          6           0        0.110579    0.475921   -1.053431
      3          8           0       -0.387882    1.340851   -1.783771
      4          6           0        2.318959   -0.336848   -0.016321
      5          6           0        1.944608    1.732042    1.756159
      6          1           0        2.331778    2.671562    2.146219
      7          1           0        1.166788    1.940831    1.020849
      8          1           0        1.529699    1.147152    2.572959
      9          7           0        2.998609    0.968372    1.091849
     10          1           0        3.517668    1.556352    0.448259
     11          1           0        3.661429    0.577213    1.754259
     12         17           0        3.928679   -0.881767   -0.658791
     13          6           0        1.823940   -1.330308    1.003089
     14          1           0        0.992450   -0.920289    1.574109
     15          1           0        1.499030   -2.241478    0.499329
     16          1           0        2.617270   -1.602578    1.696109
     17          1           0        2.058039    0.832302   -1.753301
     18          7           0       -0.716761   -0.343620   -0.289401
     19          6           0       -2.097641   -0.237360   -0.114431
     20          6           0       -2.789191    0.972310   -0.204161
     21          6           0       -4.154661    1.007989    0.033719
     22          6           0       -4.855911   -0.141031    0.370879
     23          6           0       -4.167810   -1.342101    0.470019
     24          6           0       -2.805790   -1.392580    0.227149
     25          1           0       -0.330710   -1.228609   -0.016831
     26          1           0       -2.255762    1.872850   -0.463931
     27          1           0       -4.674952    1.955179   -0.041541
     28          1           0       -5.921561   -0.101102    0.555229
     29          1           0       -4.693480   -2.251421    0.733949
     30          1           0       -2.279960   -2.337770    0.301809
 ---------------------------------------------------------------------

 SCF Done:  E(RwB97XD) =  -1073.14350975     A.U. after    1 cycles

 The electronic state is 1-A.
 Alpha  occ. eigenvalues -- -101.69333 -19.19614 -14.50348 -14.45487 -10.40859
 Alpha  occ. eigenvalues --  -10.37953 -10.33418 -10.32283 -10.29726 -10.28886
 Alpha  occ. eigenvalues --  -10.28763 -10.28601 -10.28127 -10.28087 -10.24943
 Alpha  occ. eigenvalues --   -9.57944  -7.32551  -7.31741  -7.31708  -1.12504
 Alpha  occ. eigenvalues --   -1.06060  -1.03153  -0.96948  -0.95112  -0.87322
 Alpha  occ. eigenvalues --   -0.84937  -0.84283  -0.81278  -0.79853  -0.72805
 Alpha  occ. eigenvalues --   -0.71234  -0.67942  -0.65095  -0.64297  -0.62282
 Alpha  occ. eigenvalues --   -0.59467  -0.58021  -0.57702  -0.56077  -0.54635
 Alpha  occ. eigenvalues --   -0.53432  -0.52238  -0.51158  -0.50773  -0.50236
 Alpha  occ. eigenvalues --   -0.50072  -0.48681  -0.46618  -0.46275  -0.45383
 Alpha  occ. eigenvalues --   -0.45228  -0.44168  -0.42664  -0.40050  -0.39355
 Alpha  occ. eigenvalues --   -0.38824  -0.34178  -0.33018  -0.30049  -0.27034
 Alpha virt. eigenvalues --    0.04671   0.05551   0.07301   0.08749   0.10068
 Alpha virt. eigenvalues --    0.12224   0.13586   0.14042   0.14546   0.16085
 Alpha virt. eigenvalues --    0.16705   0.17349   0.17665   0.18648   0.18879

 Mulliken charges:
               1
     1  C   -0.496046
     2  C    0.349776
     3  O   -0.542858
     4  C    0.217731
     5  C   -0.314954
     6  H    0.167588
     7  H    0.159743
     8  H    0.166974
     9  N   -0.259327
    10  H    0.288410
    11  H    0.295129
    12  Cl  -0.153033
    13  C   -0.484819
    14  H    0.173011
    15  H    0.175012
    16  H    0.162940
    17  H    0.119406
    18  N   -0.279458
    19  C    0.301009
    20  C   -0.307011
    21  C   -0.092460
    22  C   -0.201800
    23  C   -0.099078
    24  C   -0.306739
    25  H    0.253599
    26  H    0.144543
    27  H    0.140631
    28  H    0.139434
    29  H    0.141728
    30  H    0.140919
 Sum of Mulliken charges =  -0.00000

 Dipole moment (field-independent basis, Debye):
    X=              6.1041    Y=             -0.8605    Z=              9.5166  Tot=             11.3386
 Quadrupole moment (field-independent basis, Debye-Ang):
   XX=            -83.3945   YY=            -89.6508   ZZ=           -102.9372
   XY=             12.3324   XZ=             11.2978   YZ=              6.5753

  Exact polarizability: 311.593  -8.691 214.842  -1.455 -10.906 180.309
 Approx polarizability: 224.897  -8.338 184.537  -1.920 -10.974 154.631

 ******    1 imaginary frequencies (negative Signs) ******

                      1                      2                      3
                      A                      A                      A
 Frequencies --   -370.0768                24.2786                30.7055
 Red. masses --      5.0905                 4.1986                 4.4511
 Frc consts  --      0.4108                 0.0015                 0.0025
 IR Inten    --    903.6688                 2.1154                 3.8868

                      4                      5                      6
                      A                      A                      A
 Frequencies --     45.7984                75.9367               105.5996
 Red. masses --      5.6297                 2.3822                 3.5142
 Frc consts  --      0.0070                 0.0081                 0.0231
 IR Inten    --      2.2432                 1.5356                12.1223

                      7                      8                      9
                      A                      A                      A
 Frequencies --    116.3791               171.8909               205.5329
 Red. masses --      5.7502                 5.8319                 2.7910
 Frc consts  --      0.0459                 0.1015                 0.0695
 IR Inten    --      0.6274                10.9725                 7.1015

                     10                     11                     12
                      A                      A                      A
 Frequencies --    219.2706               259.4177               264.6408
 Red. masses --      1.3323                 5.0167                 4.7456
 Frc consts  --      0.0377                 0.1989                 0.1958
 IR Inten    --      2.1684                 4.3558                 7.7074

                     13                     14                     15
                      A                      A                      A
 Frequencies --    294.1971               339.0460               353.7333
 Red. masses --      2.7281                 2.2611                 2.1609
 Frc consts  --      0.1391                 0.1531                 0.1593
 IR Inten    --      3.5035                36.6033                14.8786

                     16                     17                     18
                      A                      A                      A
 Frequencies --    362.1186               376.3352               422.7901
 Red. masses --      2.0074                 4.4040                 3.6198
 Frc consts  --      0.1551                 0.3675                 0.3812
 IR Inten    --      9.3740                 0.6035                18.7707

                     19                     20                     21
                      A                      A                      A
 Frequencies --    426.6023               510.7385               523.0147
 Red. masses --      3.7947                 2.3370                 2.2687
 Frc consts  --      0.4069                 0.3592                 0.3656
 IR Inten    --     15.6608               124.3242                 8.7949

                     22                     23                     24
                      A                      A                      A
 Frequencies --    528.8604               562.4082               635.3864
 Red. masses --      2.3160                 2.3901                 6.1695
 Frc consts  --      0.3816                 0.4454                 1.4675
 IR Inten    --     10.3654                95.5390                 3.0699

                     25                     26                     27
                      A                      A                      A
 Frequencies --    656.4601               704.1301               717.7227
 Red. masses --      2.3077                 3.2325                 1.9110
 Frc consts  --      0.5859                 0.9443                 0.5800
 IR Inten    --    155.7460                16.9409                63.9941

                     28                     29                     30
                      A                      A                      A
 Frequencies --    731.8254               747.2168               780.3834
 Red. masses --      1.9676                 1.9717                 1.8308
 Frc consts  --      0.6209                 0.6486                 0.6569
 IR Inten    --    194.6532                33.5695               113.4749

                     31                     32                     33
                      A                      A                      A
 Frequencies --    804.2054               858.6219               889.6804
 Red. masses --      3.1064                 1.2593                 4.4617
 Frc consts  --      1.1837                 0.5470                 2.0808
 IR Inten    --    104.2620                 1.9796                 8.1885

                     34                     35                     36
                      A                      A                      A
 Frequencies --    916.4810               932.1982               999.8726
 Red. masses --      3.3091                 1.6870                 1.3544
 Frc consts  --      1.6376                 0.8638                 0.7978
 IR Inten    --    132.1840                 9.6383                 0.2715

                     37                     38                     39
                      A                      A                      A
 Frequencies --   1006.9194              1013.3904              1020.2802
 Red. masses --      1.5321                 1.2797                 4.4928
 Frc consts  --      0.9152                 0.7743                 2.7555
 IR Inten    --      7.0989                 0.0672                 5.3514

                     40                     41                     42
                      A                      A                      A
 Frequencies --   1030.2338              1056.7672              1065.6796
 Red. masses --      1.8125                 1.3863                 1.9958
 Frc consts  --      1.1335                 0.9122                 1.3355
 IR Inten    --     34.8015                10.7972                22.7535

                     43                     44                     45
                      A                      A                      A
 Frequencies --   1077.2191              1084.0383              1115.1975
 Red. masses --      3.1735                 1.3421                 1.7069
 Frc consts  --      2.1697                 0.9292                 1.2507
 IR Inten    --     16.0456                79.2814               136.4565

                     46                     47                     48
                      A                      A                      A
 Frequencies --   1123.3822              1181.7849              1211.5634
 Red. masses --      1.5387                 1.1196                 1.1318
 Frc consts  --      1.1441                 0.9213                 0.9788
 IR Inten    --     12.5839                 4.8096                31.6333

                     49                     50                     51
                      A                      A                      A
 Frequencies --   1252.3940              1265.4282              1300.6888
 Red. masses --      1.3594                 2.0873                 3.3703
 Frc consts  --      1.2563                 1.9693                 3.3594
 IR Inten    --     42.9949               768.5756               105.9029

                     52                     53                     54
                      A                      A                      A
 Frequencies --   1329.5316              1340.9551              1357.2128
 Red. masses --      1.6792                 2.8103                 1.7320
 Frc consts  --      1.7488                 2.9774                 1.8798
 IR Inten    --     69.4809               371.4249               149.3607

                     55                     56                     57
                      A                      A                      A
 Frequencies --   1364.2346              1422.1468              1446.3224
 Red. masses --      1.5613                 1.2958                 1.8482
 Frc consts  --      1.7120                 1.5441                 2.2779
 IR Inten    --     45.1333                31.1879               554.7562

                     58                     59                     60
                      A                      A                      A
 Frequencies --   1467.4473              1472.1029              1494.6510
 Red. masses --      1.6640                 2.0016                 1.0424
 Frc consts  --      2.1112                 2.5557                 1.3720
 IR Inten    --    443.4534               184.9442                30.2729

                     61                     62                     63
                      A                      A                      A
 Frequencies --   1495.5995              1509.5961              1518.7258
 Red. masses --      1.0527                 1.0740                 1.1029
 Frc consts  --      1.3873                 1.4420                 1.4988
 IR Inten    --      6.9484                28.1298                27.4480

                     64                     65                     66
                      A                      A                      A
 Frequencies --   1547.2755              1556.3622              1637.3714
 Red. masses --      2.5021                 1.9840                 1.1105
 Frc consts  --      3.5294                 2.8314                 1.7541
 IR Inten    --    275.5344               201.2357               147.6316

                     67                     68                     69
                      A                      A                      A
 Frequencies --   1649.5747              1662.5072              1676.4846
 Red. masses --      5.9321                 4.0866                 6.1093
 Frc consts  --      9.5104                 6.6549                10.1167
 IR Inten    --    716.7585               187.4260               268.1750

                     70                     71                     72
                      A                      A                      A
 Frequencies --   3073.8087              3075.2447              3151.9010
 Red. masses --      1.0367                 1.0341                 1.1019
 Frc consts  --      5.7711                 5.7618                 6.4498
 IR Inten    --      7.5814                24.2906                11.6889

                     73                     74                     75
                      A                      A                      A
 Frequencies --   3155.2240              3166.6380              3180.6835
 Red. masses --      1.1040                 1.1033                 1.1059
 Frc consts  --      6.4758                 6.5184                 6.5916
 IR Inten    --      3.8943                11.4872                10.3072

                     76                     77                     78
                      A                      A                      A
 Frequencies --   3185.6433              3195.1274              3195.7002
 Red. masses --      1.0878                 1.0882                 1.0869
 Frc consts  --      6.5044                 6.5452                 6.5399
 IR Inten    --     14.8861                 2.1928                 7.3070

                     79                     80                     81
                      A                      A                      A
 Frequencies --   3204.8719              3220.4994              3259.7165
 Red. masses --      1.0930                 1.0977                 1.0925
 Frc consts  --      6.6146                 6.7080                 6.8398
 IR Inten    --     30.9439                24.2041                 1.5507

                     82                     83                     84
                      A                      A                      A
 Frequencies --   3508.2083              3591.0069              3683.6986
 Red. masses --      1.0511                 1.0968                 1.0759
 Frc consts  --      7.6219                 8.3332                 8.6019
 IR Inten    --     62.4828                56.3536                48.2153

 - Thermochemistry -
 -------------------
 Temperature   298.150 Kelvin.  Pressure   1.00000 Atm.
 Atom     1 has atomic number  6 and mass  12.00000

 Molecular mass:   226.08729 amu.
 Principal axes and moments of inertia in atomic units:
                           1         2         3
     Eigenvalues --  1552.025277574.286687778.44083
           X            0.99990   0.01019   0.01024
           Y           -0.01054   0.99933   0.03511
           Z           -0.00988  -0.03522   0.99933
 This molecule is an asymmetric top.
 Rotational symmetry number  1.
 Warning -- assumption of classical behavior for rotation
           may cause significant error
 Rotational temperatures (Kelvin)      0.05581     0.01144     0.01114
 Rotational constants (GHZ):           1.16283     0.23827     0.23202
    1 imaginary frequencies ignored.
 Zero-point vibrational energy     653128.3 (Joules/Mol)
                                  156.10140 (Kcal/Mol)
 Warning -- explicit consideration of  22 degrees of freedom as
           vibrations may cause significant error
 Vibrational temperatures:     34.93    44.18    65.89   109.26   151.93
          (Kelvin)            167.44   247.31   295.72   315.48   373.24
                              380.76   423.28   487.81   508.94   521.01
                              541.46   608.30   613.79   734.84   752.50
                              760.91   809.18   914.18   944.50  1013.09
                             1032.64  1052.93  1075.08  1122.80  1157.07
                             1235.37  1280.05  1318.61  1341.23  1438.59
                             1448.73  1458.04  1467.96  1482.28  1520.45
                             1533.28  1549.88  1559.69  1604.52  1616.30
                             1700.32  1743.17  1801.92  1820.67  1871.40
                             1912.90  1929.34  1952.73  1962.83  2046.15
                             2080.94  2111.33  2118.03  2150.47  2151.83
                             2171.97  2185.11  2226.18  2239.26  2355.81
                             2373.37  2391.98  2412.09  4422.53  4424.59
                             4534.88  4539.66  4556.09  4576.29  4583.43
                             4597.08  4597.90  4611.10  4633.58  4690.00
                             5047.53  5166.66  5300.02

 Zero-point correction=                           0.248763 (Hartree/Particle)
 Thermal correction to Energy=                    0.263832
 Thermal correction to Enthalpy=                  0.264776
 Thermal correction to Gibbs Free Energy=         0.204671
 Sum of electronic and zero-point Energies=          -1072.894746
 Sum of electronic and thermal Energies=             -1072.879678
 Sum of electronic and thermal Enthalpies=           -1072.878733
 Sum of electronic and thermal Free Energies=        -1072.938839

                     E (Thermal)             CV                S
                      KCal/Mol        Cal/Mol-Kelvin    Cal/Mol-Kelvin
 Total                  165.557             56.491            126.503
 Electronic               0.000              0.000              0.000
 Translational            0.889              2.981             42.150
 Rotational               0.889              2.981             32.880
 Vibrational            163.780             50.529             51.473
 Vibration     1          0.593              1.985              6.249
 Vibration     2          0.594              1.984              5.783
 Vibration     3          0.595              1.979              4.991
 Vibration     4          0.599              1.965              3.993
 Vibration     5          0.605              1.945              3.348
 Vibration     6          0.608              1.936              3.160
 Vibration     7          0.626              1.877              2.415
 Vibration     8          0.640              1.832              2.083
 Vibration     9          0.647              1.812              1.965
 Vibration    10          0.668              1.747              1.666
 Vibration    11          0.671              1.738              1.631
 Vibration    12          0.689              1.685              1.450
 Vibration    13          0.719              1.597              1.217
 Vibration    14          0.730              1.568              1.150
 Vibration    15          0.736              1.550              1.113
 Vibration    16          0.747              1.521              1.054
 Vibration    17          0.785              1.421              0.883
 Vibration    18          0.788              1.412              0.870
 Vibration    19          0.866              1.226              0.632
 Vibration    20          0.878              1.199              0.603
 Vibration    21          0.884              1.186              0.590
 Vibration    22          0.918              1.113              0.519

 Optimization completed.
    -- Stationary point found.
 Normal termination of Gaussian 16 at Fri Feb 26 03:06:51 2021.
