 Gaussian 16, Revision A.03,
 Gaussian 16:  ES64L-G16RevA.03 25-Dec-2016

 ----------------------------------------------------------------------
 # wB97XD def2tzvp, opt=(ts, noeigen, calcfc, maxcycles=70, maxstep=3),
  freq=noraman, scrf=(iefpcm, solvent=water)
 ----------------------------------------------------------------------

 ------------------------
 0_iteration/TS-854-0.out
 ------------------------
 Symbolic Z-matrix:
 Charge =  0 Multiplicity = 1

 SCF Done:  E(RwB97XD) =  -881.394712769     A.U. after   14 cycles
 SCF Done:  E(RwB97XD) =  -881.394698030     A.U. after   11 cycles
 SCF Done:  E(RwB97XD) =  -881.394710859     A.U. after   10 cycles
 SCF Done:  E(RwB97XD) =  -881.394761105     A.U. after   10 cycles
 SCF Done:  E(RwB97XD) =  -881.394855992     A.U. after   10 cycles
 SCF Done:  E(RwB97XD) =  -881.394977765     A.U. after   10 cycles
 SCF Done:  E(RwB97XD) =  -881.395124699     A.U. after   10 cycles
 SCF Done:  E(RwB97XD) =  -881.395285032     A.U. after   10 cycles
 SCF Done:  E(RwB97XD) =  -881.395448072     A.U. after   10 cycles
 SCF Done:  E(RwB97XD) =  -881.395599532     A.U. after   10 cycles
 SCF Done:  E(RwB97XD) =  -881.395790514     A.U. after   10 cycles
 SCF Done:  E(RwB97XD) =  -881.395800208     A.U. after   10 cycles
 SCF Done:  E(RwB97XD) =  -881.395779297     A.U. after   11 cycles
 SCF Done:  E(RwB97XD) =  -881.395788318     A.U. after   10 cycles
 SCF Done:  E(RwB97XD) =  -881.395811973     A.U. after   10 cycles
 SCF Done:  E(RwB97XD) =  -881.395815103     A.U. after   10 cycles
 SCF Done:  E(RwB97XD) =  -881.395812651     A.U. after   10 cycles
 SCF Done:  E(RwB97XD) =  -881.395815387     A.U. after   10 cycles
 SCF Done:  E(RwB97XD) =  -881.395815490     A.U. after    8 cycles
 Optimization completed.
    -- Stationary point found.
 Normal termination of Gaussian 16 at Wed Apr 14 20:56:50 2021.

 ---------------------------------------------------------------------
 #N Geom=AllCheck Guess=TCheck SCRF=Check GenChk RwB97XD/def2TZVP Freq
 ---------------------------------------------------------------------

 Structure from the checkpoint file:  "/beegfs/scratch/user/q/tla25/Gau-364268.chk"
 ------------------------
 0_iteration/TS-854-0.out
 ------------------------
 Charge =  0 Multiplicity = 1

                         Standard orientation:
 ---------------------------------------------------------------------
 Center     Atomic      Atomic             Coordinates (Angstroms)
 Number     Number       Type             X           Y           Z
 ---------------------------------------------------------------------
      1          6           0        0.153950   -0.696404    0.008386
      2          6           0        1.194114    0.257648   -0.264850
      3          8           0        0.926362    1.395899   -0.713286
      4          6           0       -1.124544   -0.342108   -0.390257
      5          6           0       -3.009240    1.746836    0.258146
      6          1           0       -3.188257    2.665458    0.818355
      7          1           0       -2.952823    1.988154   -0.803158
      8          1           0       -3.838488    1.061154    0.420443
      9          7           0       -1.765095    1.100914    0.660206
     10          1           0       -0.954432    1.700643    0.525244
     11          1           0       -1.780731    0.774890    1.619211
     12         17           0       -2.398108   -1.537178   -0.184850
     13          1           0       -1.267783    0.223675   -1.302486
     14          1           0        0.294778   -1.529866    0.678062
     15          7           0        2.491555   -0.095215   -0.012205
     16          6           0        2.855777   -1.402747    0.485189
     17          6           0        3.535931    0.903731   -0.005911
     18          1           0        2.286017   -2.182020   -0.018818
     19          1           0        3.912256   -1.573782    0.279048
     20          1           0        2.701035   -1.497512    1.566178
     21          1           0        3.125485    1.850202   -0.343397
     22          1           0        3.946409    1.030542    1.001519
     23          1           0        4.352328    0.611660   -0.671690
 ---------------------------------------------------------------------

 SCF Done:  E(RwB97XD) =  -881.395815490     A.U. after    1 cycles

 The electronic state is 1-A.
 Alpha  occ. eigenvalues -- -101.69945 -19.19120 -14.47852 -14.44730 -10.38303
 Alpha  occ. eigenvalues --  -10.36713 -10.31678 -10.30495 -10.29943 -10.24635
 Alpha  occ. eigenvalues --   -9.58528  -7.33158  -7.32323  -7.32282  -1.11661
 Alpha  occ. eigenvalues --   -1.03715  -1.02154  -0.96771  -0.85457  -0.81111
 Alpha  occ. eigenvalues --   -0.79112  -0.77706  -0.69509  -0.63347  -0.62076
 Alpha  occ. eigenvalues --   -0.59512  -0.56566  -0.55854  -0.55382  -0.54056
 Alpha  occ. eigenvalues --   -0.51800  -0.50055  -0.48212  -0.48156  -0.47572
 Alpha  occ. eigenvalues --   -0.47350  -0.46106  -0.45248  -0.44498  -0.40040
 Alpha  occ. eigenvalues --   -0.38660  -0.33342  -0.31364  -0.26922
 Alpha virt. eigenvalues --    0.06391   0.09912   0.11580   0.12096   0.14539
 Alpha virt. eigenvalues --    0.15450   0.16222   0.16649   0.17708   0.17929
 Alpha virt. eigenvalues --    0.19035   0.19765   0.20077   0.20620   0.21259

 Mulliken charges:
               1
     1  C   -0.504063
     2  C    0.353528
     3  O   -0.611522
     4  C    0.042700
     5  C   -0.272579
     6  H    0.151276
     7  H    0.146706
     8  H    0.148062
     9  N   -0.313114
    10  H    0.274487
    11  H    0.274320
    12  Cl  -0.121432
    13  H    0.167179
    14  H    0.146327
    15  N   -0.116633
    16  C   -0.301654
    17  C   -0.280049
    18  H    0.143286
    19  H    0.142252
    20  H    0.134607
    21  H    0.141704
    22  H    0.124640
    23  H    0.129972
 Sum of Mulliken charges =  -0.00000

 Dipole moment (field-independent basis, Debye):
    X=             -2.0111    Y=              0.9914    Z=              3.8392  Tot=              4.4460
 Quadrupole moment (field-independent basis, Debye-Ang):
   XX=            -54.3267   YY=            -69.9676   ZZ=            -67.5871
   XY=            -12.2187   XZ=             -0.0390   YZ=              2.8926

  Exact polarizability: 204.113  -7.701 147.103  -1.154  -1.663 113.237
 Approx polarizability: 143.591  -3.836 122.761  -0.944  -2.790  99.817

 ******    1 imaginary frequencies (negative Signs) ******

                      1                      2                      3
                      A                      A                      A
 Frequencies --   -388.2909                46.8161                68.0291
 Red. masses --      6.5744                 2.6317                 3.6670
 Frc consts  --      0.5840                 0.0034                 0.0100
 IR Inten    --   1006.2363                10.2640                 5.6710

                      4                      5                      6
                      A                      A                      A
 Frequencies --     77.5323                94.4280               119.1963
 Red. masses --      2.0369                 1.7114                 1.9305
 Frc consts  --      0.0072                 0.0090                 0.0162
 IR Inten    --      3.2544                 3.1935                31.1728

                      7                      8                      9
                      A                      A                      A
 Frequencies --    129.3016               168.5491               172.5087
 Red. masses --      1.9386                 2.0809                 1.5646
 Frc consts  --      0.0191                 0.0348                 0.0274
 IR Inten    --      4.6752                 5.8151                12.8813

                     10                     11                     12
                      A                      A                      A
 Frequencies --    195.5233               218.3762               266.8141
 Red. masses --      2.1863                 2.5050                 3.0616
 Frc consts  --      0.0492                 0.0704                 0.1284
 IR Inten    --      3.2602                 0.5111                18.0841

                     13                     14                     15
                      A                      A                      A
 Frequencies --    296.1680               335.8413               378.6812
 Red. masses --      4.1188                 4.3673                 3.2314
 Frc consts  --      0.2129                 0.2902                 0.2730
 IR Inten    --     40.9854                21.5892                13.3048

                     16                     17                     18
                      A                      A                      A
 Frequencies --    468.4031               551.2733               625.4471
 Red. masses --      2.9545                 3.5030                 5.2230
 Frc consts  --      0.3819                 0.6272                 1.2038
 IR Inten    --     70.8166                15.7604                13.4774

                     19                     20                     21
                      A                      A                      A
 Frequencies --    641.1246               675.8701               780.1227
 Red. masses --      1.2440                 1.5921                 8.6595
 Frc consts  --      0.3013                 0.4285                 3.1050
 IR Inten    --    171.2424                28.1337                83.4617

                     22                     23                     24
                      A                      A                      A
 Frequencies --    797.1509               908.6184              1008.0885
 Red. masses --      3.9423                 3.4817                 1.1617
 Frc consts  --      1.4760                 1.6936                 0.6956
 IR Inten    --    156.5859                67.9129                29.4293

                     25                     26                     27
                      A                      A                      A
 Frequencies --   1024.6965              1051.4569              1081.1429
 Red. masses --      2.0141                 1.1873                 3.5882
 Frc consts  --      1.2460                 0.7734                 2.4711
 IR Inten    --     60.9736                89.7647               289.0723

                     28                     29                     30
                      A                      A                      A
 Frequencies --   1084.7481              1131.7691              1159.2964
 Red. masses --      1.4693                 1.2341                 1.4933
 Frc consts  --      1.0187                 0.9313                 1.1825
 IR Inten    --     15.9002                 3.3592               217.1713

                     31                     32                     33
                      A                      A                      A
 Frequencies --   1178.2364              1187.1508              1211.5025
 Red. masses --      1.3360                 1.2659                 1.4561
 Frc consts  --      1.0928                 1.0512                 1.2592
 IR Inten    --     13.0477               212.4046                38.3190

                     34                     35                     36
                      A                      A                      A
 Frequencies --   1260.9978              1284.5503              1315.0925
 Red. masses --      1.4175                 1.6422                 5.1846
 Frc consts  --      1.3280                 1.5965                 5.2830
 IR Inten    --      9.0614                86.1778                 5.3434

                     37                     38                     39
                      A                      A                      A
 Frequencies --   1346.6650              1416.8050              1432.8352
 Red. masses --      1.3163                 1.4048                 1.9568
 Frc consts  --      1.4065                 1.6614                 2.3670
 IR Inten    --      8.5759               112.3237                13.0231

                     40                     41                     42
                      A                      A                      A
 Frequencies --   1456.3922              1466.9948              1480.8265
 Red. masses --      1.4188                 1.3667                 1.4672
 Frc consts  --      1.7731                 1.7330                 1.8957
 IR Inten    --    417.9278               244.4216               509.6576

                     43                     44                     45
                      A                      A                      A
 Frequencies --   1490.5287              1491.7017              1495.2379
 Red. masses --      1.0410                 1.0439                 1.0494
 Frc consts  --      1.3626                 1.3686                 1.3823
 IR Inten    --     15.8954                18.8545                24.5412

                     46                     47                     48
                      A                      A                      A
 Frequencies --   1504.6883              1507.7279              1534.7514
 Red. masses --      1.0491                 1.1245                 1.5065
 Frc consts  --      1.3994                 1.5061                 2.0907
 IR Inten    --     22.2639                34.8247               291.0573

                     49                     50                     51
                      A                      A                      A
 Frequencies --   1602.0785              1647.1176              3018.7523
 Red. masses --      5.4980                 1.1004                 1.0472
 Frc consts  --      8.3143                 1.7589                 5.6228
 IR Inten    --    644.9672                55.5372                75.8654

                     52                     53                     54
                      A                      A                      A
 Frequencies --   3025.5554              3064.8726              3079.8105
 Red. masses --      1.0442                 1.0339                 1.1000
 Frc consts  --      5.6315                 5.7223                 6.1476
 IR Inten    --    151.3530                55.0359                71.1345

                     55                     56                     57
                      A                      A                      A
 Frequencies --   3106.4543              3139.4708              3147.1466
 Red. masses --      1.0870                 1.1046                 1.1037
 Frc consts  --      6.1805                 6.4145                 6.4410
 IR Inten    --     40.0321                20.1047                20.3664

                     58                     59                     60
                      A                      A                      A
 Frequencies --   3164.3237              3182.0942              3184.9916
 Red. masses --      1.1049                 1.0964                 1.0920
 Frc consts  --      6.5184                 6.5411                 6.5266
 IR Inten    --     15.9239                 4.3946                 8.3923

                     61                     62                     63
                      A                      A                      A
 Frequencies --   3244.7445              3486.1202              3592.6018
 Red. masses --      1.0901                 1.0546                 1.0939
 Frc consts  --      6.7621                 7.5515                 8.3183
 IR Inten    --      1.8376                46.3593                66.6293

 - Thermochemistry -
 -------------------
 Temperature   298.150 Kelvin.  Pressure   1.00000 Atm.
 Atom     1 has atomic number  6 and mass  12.00000

 Molecular mass:   164.07164 amu.
 Principal axes and moments of inertia in atomic units:
                           1         2         3
     Eigenvalues --   972.866823142.766803884.48943
           X            0.99894  -0.04589   0.00217
           Y            0.04590   0.99893  -0.00520
           Z           -0.00193   0.00529   0.99998
 This molecule is an asymmetric top.
 Rotational symmetry number  1.
 Warning -- assumption of classical behavior for rotation
           may cause significant error
 Rotational temperatures (Kelvin)      0.08903     0.02756     0.02230
 Rotational constants (GHZ):           1.85508     0.57425     0.46460
    1 imaginary frequencies ignored.
 Zero-point vibrational energy     510241.9 (Joules/Mol)
                                  121.95075 (Kcal/Mol)
 Warning -- explicit consideration of  16 degrees of freedom as
           vibrations may cause significant error
 Vibrational temperatures:     67.36    97.88   111.55   135.86   171.50
          (Kelvin)            186.04   242.50   248.20   281.31   314.19
                              383.89   426.12   483.20   544.84   673.93
                              793.16   899.88   922.44   972.43  1122.42
                             1146.92  1307.30  1450.41  1474.31  1512.81
                             1555.52  1560.71  1628.36  1667.97  1695.22
                             1708.05  1743.08  1814.29  1848.18  1892.12
                             1937.55  2038.47  2061.53  2095.42  2110.68
                             2130.58  2144.54  2146.23  2151.31  2164.91
                             2169.28  2208.16  2305.03  2369.83  4343.31
                             4353.10  4409.67  4431.16  4469.49  4517.00
                             4528.04  4552.76  4578.32  4582.49  4668.46
                             5015.75  5168.95

 Zero-point correction=                           0.194341 (Hartree/Particle)
 Thermal correction to Energy=                    0.207046
 Thermal correction to Enthalpy=                  0.207990
 Thermal correction to Gibbs Free Energy=         0.154304
 Sum of electronic and zero-point Energies=           -881.201475
 Sum of electronic and thermal Energies=              -881.188770
 Sum of electronic and thermal Enthalpies=            -881.187825
 Sum of electronic and thermal Free Energies=         -881.241512

                     E (Thermal)             CV                S
                      KCal/Mol        Cal/Mol-Kelvin    Cal/Mol-Kelvin
 Total                  129.923             43.051            112.993
 Electronic               0.000              0.000              0.000
 Translational            0.889              2.981             41.194
 Rotational               0.889              2.981             30.852
 Vibrational            128.146             37.089             40.947
 Vibration     1          0.595              1.979              4.948
 Vibration     2          0.598              1.969              4.210
 Vibration     3          0.599              1.964              3.952
 Vibration     4          0.603              1.953              3.566
 Vibration     5          0.609              1.933              3.113
 Vibration     6          0.612              1.924              2.956
 Vibration     7          0.625              1.881              2.452
 Vibration     8          0.626              1.876              2.408
 Vibration     9          0.636              1.846              2.175
 Vibration    10          0.646              1.813              1.973
 Vibration    11          0.672              1.734              1.617
 Vibration    12          0.690              1.681              1.438
 Vibration    13          0.717              1.604              1.232
 Vibration    14          0.749              1.516              1.044
 Vibration    15          0.826              1.320              0.742
 Vibration    16          0.907              1.137              0.542

 Optimization completed.
    -- Stationary point found.
 Normal termination of Gaussian 16 at Wed Apr 14 21:03:12 2021.
