 Gaussian 16, Revision A.03,
 Gaussian 16:  ES64L-G16RevA.03 25-Dec-2016

 ----------------------------------------------------------------------
 # wB97XD def2tzvp, opt=(ts, noeigen, calcfc, maxcycles=70, maxstep=8),
  freq=noraman, scrf=(iefpcm, solvent=water)
 ----------------------------------------------------------------------

 ------------------------
 1_iteration/TS-817-1.out
 ------------------------
 Symbolic Z-matrix:
 Charge =  0 Multiplicity = 1

 SCF Done:  E(RwB97XD) =  -1017.76017869     A.U. after   15 cycles
 SCF Done:  E(RwB97XD) =  -1017.76022269     A.U. after   12 cycles
 SCF Done:  E(RwB97XD) =  -1017.76035216     A.U. after   12 cycles
 SCF Done:  E(RwB97XD) =  -1017.76063062     A.U. after   12 cycles
 SCF Done:  E(RwB97XD) =  -1017.76081426     A.U. after   12 cycles
 SCF Done:  E(RwB97XD) =  -1017.76086244     A.U. after   12 cycles
 SCF Done:  E(RwB97XD) =  -1017.76086269     A.U. after   12 cycles
 SCF Done:  E(RwB97XD) =  -1017.76090123     A.U. after   12 cycles
 SCF Done:  E(RwB97XD) =  -1017.76090838     A.U. after   10 cycles
 SCF Done:  E(RwB97XD) =  -1017.76088870     A.U. after   11 cycles
 SCF Done:  E(RwB97XD) =  -1017.76090837     A.U. after   12 cycles
 SCF Done:  E(RwB97XD) =  -1017.76090812     A.U. after   11 cycles
 SCF Done:  E(RwB97XD) =  -1017.76090085     A.U. after   12 cycles
 SCF Done:  E(RwB97XD) =  -1017.76091411     A.U. after   11 cycles
 SCF Done:  E(RwB97XD) =  -1017.76091312     A.U. after   10 cycles
 SCF Done:  E(RwB97XD) =  -1017.76089397     A.U. after   11 cycles
 SCF Done:  E(RwB97XD) =  -1017.76091434     A.U. after   11 cycles
 SCF Done:  E(RwB97XD) =  -1017.76091435     A.U. after    9 cycles
 SCF Done:  E(RwB97XD) =  -1017.76091434     A.U. after    9 cycles
 Optimization completed.
    -- Stationary point found.
 Normal termination of Gaussian 16 at Fri Feb 26 04:56:41 2021.

 ---------------------------------------------------------------------
 #N Geom=AllCheck Guess=TCheck SCRF=Check GenChk RwB97XD/def2TZVP Freq
 ---------------------------------------------------------------------

 Structure from the checkpoint file:  "/beegfs/scratch/user/q/tla25/Gau-16043.chk"
 ------------------------
 1_iteration/TS-817-1.out
 ------------------------
 Charge =  0 Multiplicity = 1

                         Standard orientation:
 ---------------------------------------------------------------------
 Center     Atomic      Atomic             Coordinates (Angstroms)
 Number     Number       Type             X           Y           Z
 ---------------------------------------------------------------------
      1          6           0        1.453577    0.535824   -0.514594
      2          6           0        0.997229    1.840572   -0.821047
      3          8           0        1.704348    2.782038   -1.205660
      4          6           0        0.552486   -0.452308   -0.089914
      5          6           0        1.481642    0.168987    2.499933
      6          1           0        1.683841    1.020254    1.842294
      7          1           0        0.748962    0.457095    3.248517
      8          1           0        2.405310   -0.121030    2.994663
      9          7           0        0.973534   -0.928823    1.676960
     10          1           0        1.665894   -1.658121    1.561467
     11          1           0        0.143103   -1.360855    2.065610
     12         17           0        0.888033   -2.118530   -0.756619
     13          6           0       -0.925551   -0.184141   -0.036848
     14          6           0       -1.774221   -0.661332   -1.031202
     15          6           0       -3.125776   -0.356303   -1.010745
     16          6           0       -3.652534    0.424115    0.007463
     17          6           0       -2.814604    0.906214    1.000757
     18          6           0       -1.461734    0.606836    0.976166
     19          1           0       -1.377420   -1.269871   -1.831701
     20          1           0       -3.768703   -0.733063   -1.795734
     21          1           0       -4.709428    0.656797    0.025279
     22          1           0       -3.209990    1.522416    1.797725
     23          1           0       -0.822232    1.017000    1.745008
     24          6           0        2.915216    0.219381   -0.658667
     25          1           0        3.315067   -0.302080    0.216813
     26          1           0        3.122174   -0.412165   -1.526815
     27          1           0        3.470831    1.148467   -0.778095
     28          1           0       -0.087873    2.008569   -0.723765
 ---------------------------------------------------------------------

 SCF Done:  E(RwB97XD) =  -1017.76091434     A.U. after    1 cycles

 The electronic state is 1-A.
 Alpha  occ. eigenvalues -- -101.69614 -19.20046 -14.50503 -10.41024 -10.33808
 Alpha  occ. eigenvalues --  -10.32322 -10.31773 -10.30160 -10.29920 -10.29725
 Alpha  occ. eigenvalues --  -10.29672 -10.29618 -10.27015 -10.26633  -9.58231
 Alpha  occ. eigenvalues --   -7.32837  -7.32032  -7.31992  -1.10147  -1.06095
 Alpha  occ. eigenvalues --   -0.98920  -0.95909  -0.88827  -0.86381  -0.85966
 Alpha  occ. eigenvalues --   -0.80168  -0.78368  -0.73164  -0.71458  -0.69241
 Alpha  occ. eigenvalues --   -0.65464  -0.62705  -0.59628  -0.58964  -0.57842
 Alpha  occ. eigenvalues --   -0.56623  -0.55814  -0.53306  -0.52737  -0.51787
 Alpha  occ. eigenvalues --   -0.49710  -0.48825  -0.48778  -0.47579  -0.46871
 Alpha  occ. eigenvalues --   -0.45981  -0.45308  -0.44562  -0.43587  -0.43258
 Alpha  occ. eigenvalues --   -0.40183  -0.39524  -0.34799  -0.34440  -0.31429
 Alpha  occ. eigenvalues --   -0.27762
 Alpha virt. eigenvalues --    0.02184   0.04485   0.05850   0.08515   0.10225
 Alpha virt. eigenvalues --    0.12976   0.13283   0.13897   0.14447   0.15753
 Alpha virt. eigenvalues --    0.16445   0.17009   0.17813   0.18351   0.19873

 Mulliken charges:
               1
     1  C   -0.226556
     2  C    0.135228
     3  O   -0.530110
     4  C    0.327520
     5  C   -0.321596
     6  H    0.163487
     7  H    0.170948
     8  H    0.172198
     9  N   -0.306569
    10  H    0.291447
    11  H    0.304817
    12  Cl  -0.144458
    13  C    0.061110
    14  C   -0.249447
    15  C   -0.131205
    16  C   -0.143795
    17  C   -0.141671
    18  C   -0.241659
    19  H    0.147398
    20  H    0.147666
    21  H    0.148585
    22  H    0.147728
    23  H    0.165978
    24  C   -0.412514
    25  H    0.119753
    26  H    0.130174
    27  H    0.129575
    28  H    0.085967
 Sum of Mulliken charges =  -0.00000

 Dipole moment (field-independent basis, Debye):
    X=             -3.4478    Y=             -6.6245    Z=              8.4123  Tot=             11.2490
 Quadrupole moment (field-independent basis, Debye-Ang):
   XX=            -85.7407   YY=           -109.1516   ZZ=            -80.4099
   XY=            -14.7279   XZ=             12.3154   YZ=              6.9075

  Exact polarizability: 238.874  -0.435 220.829  -2.136   3.350 202.929
 Approx polarizability: 185.708  -0.581 185.036  -0.693   6.206 172.206

 ******    1 imaginary frequencies (negative Signs) ******

                      1                      2                      3
                      A                      A                      A
 Frequencies --   -315.4475                33.8176                77.9105
 Red. masses --      6.1794                 3.8426                 5.0973
 Frc consts  --      0.3623                 0.0026                 0.0182
 IR Inten    --    638.0159                 3.0676                 2.1279

                      4                      5                      6
                      A                      A                      A
 Frequencies --     88.8042               104.9574               135.2085
 Red. masses --      5.2297                 1.1910                 2.2187
 Frc consts  --      0.0243                 0.0077                 0.0239
 IR Inten    --      4.9600                 4.3415                 2.2472

                      7                      8                      9
                      A                      A                      A
 Frequencies --    149.5432               180.1447               185.0284
 Red. masses --      2.2387                 1.6341                 2.2907
 Frc consts  --      0.0295                 0.0312                 0.0462
 IR Inten    --      0.2642                10.9566                 5.7560

                     10                     11                     12
                      A                      A                      A
 Frequencies --    200.5481               237.2393               286.2177
 Red. masses --      3.3824                 5.0822                 4.1560
 Frc consts  --      0.0802                 0.1685                 0.2006
 IR Inten    --      3.9613                 4.1878                 7.0154

                     13                     14                     15
                      A                      A                      A
 Frequencies --    298.3177               316.7871               339.8702
 Red. masses --      3.0756                 3.5251                 4.5046
 Frc consts  --      0.1613                 0.2084                 0.3066
 IR Inten    --      4.1474                27.8471                 4.3744

                     16                     17                     18
                      A                      A                      A
 Frequencies --    352.1871               369.7812               417.8751
 Red. masses --      3.9777                 5.4661                 3.1683
 Frc consts  --      0.2907                 0.4404                 0.3260
 IR Inten    --     60.8898                46.8373                 0.2443

                     19                     20                     21
                      A                      A                      A
 Frequencies --    423.2480               513.1838               602.5491
 Red. masses --      3.3420                 3.9054                 3.2664
 Frc consts  --      0.3527                 0.6060                 0.6987
 IR Inten    --      2.2483                33.8828               122.2345

                     22                     23                     24
                      A                      A                      A
 Frequencies --    624.0717               639.3542               696.5518
 Red. masses --      2.9020                 5.7947                 2.2642
 Frc consts  --      0.6659                 1.3956                 0.6473
 IR Inten    --     88.1824                41.3830                31.6481

                     25                     26                     27
                      A                      A                      A
 Frequencies --    722.9549               735.5138               793.8292
 Red. masses --      1.7705                 3.3895                 2.2492
 Frc consts  --      0.5452                 1.0803                 0.8351
 IR Inten    --     44.2520               291.1628                27.0779

                     28                     29                     30
                      A                      A                      A
 Frequencies --    868.0281               873.7320               924.1838
 Red. masses --      4.0020                 1.2688                 3.1612
 Frc consts  --      1.7766                 0.5707                 1.5908
 IR Inten    --    175.6878                 4.8824                34.5003

                     31                     32                     33
                      A                      A                      A
 Frequencies --    965.0927              1013.6482              1023.1872
 Red. masses --      1.4829                 1.3848                 1.7924
 Frc consts  --      0.8138                 0.8384                 1.1056
 IR Inten    --      0.6914                 0.9341               145.2573

                     34                     35                     36
                      A                      A                      A
 Frequencies --   1027.3957              1030.2201              1035.2143
 Red. masses --      4.5053                 1.7069                 1.3196
 Frc consts  --      2.8019                 1.0674                 0.8332
 IR Inten    --      1.4309                80.2860                 0.4081

                     37                     38                     39
                      A                      A                      A
 Frequencies --   1053.6461              1064.7585              1068.3861
 Red. masses --      1.2773                 1.6974                 1.8524
 Frc consts  --      0.8355                 1.1338                 1.2458
 IR Inten    --      1.8216                17.4442                10.0278

                     40                     41                     42
                      A                      A                      A
 Frequencies --   1077.0103              1110.5190              1122.2531
 Red. masses --      2.8040                 1.1445                 1.5387
 Frc consts  --      1.9163                 0.8316                 1.1418
 IR Inten    --     59.1907                76.5454                 0.9010

                     43                     44                     45
                      A                      A                      A
 Frequencies --   1186.5955              1210.2750              1215.4280
 Red. masses --      1.1301                 1.4250                 1.1230
 Frc consts  --      0.9375                 1.2298                 0.9775
 IR Inten    --      0.5828                67.2627                 3.8888

                     46                     47                     48
                      A                      A                      A
 Frequencies --   1233.0165              1315.6487              1323.6495
 Red. masses --      3.3001                 1.4429                 3.2173
 Frc consts  --      2.9561                 1.4716                 3.3212
 IR Inten    --     58.6853                18.1122                22.1671

                     49                     50                     51
                      A                      A                      A
 Frequencies --   1352.8749              1361.9608              1404.0174
 Red. masses --      2.7308                 1.4386                 1.3982
 Frc consts  --      2.9448                 1.5723                 1.6239
 IR Inten    --    516.7001                21.6280               248.7033

                     52                     53                     54
                      A                      A                      A
 Frequencies --   1423.2783              1457.4078              1472.9206
 Red. masses --      2.8788                 1.1675                 1.2140
 Frc consts  --      3.4359                 1.4610                 1.5518
 IR Inten    --    110.7707                 1.6004                 8.3461

                     55                     56                     57
                      A                      A                      A
 Frequencies --   1482.1443              1491.1037              1502.7611
 Red. masses --      1.2075                 2.1634                 1.0703
 Frc consts  --      1.5628                 2.8341                 1.4241
 IR Inten    --     18.5636                28.8509                 2.0424

                     58                     59                     60
                      A                      A                      A
 Frequencies --   1504.8809              1508.9602              1546.6105
 Red. masses --      1.2145                 1.1357                 2.3608
 Frc consts  --      1.6205                 1.5236                 3.3272
 IR Inten    --     70.1984                55.6335                20.0810

                     61                     62                     63
                      A                      A                      A
 Frequencies --   1643.7175              1647.1660              1652.7317
 Red. masses --      5.8698                 1.0850                 5.7481
 Frc consts  --      9.3439                 1.7344                 9.2508
 IR Inten    --   1167.7023                69.0487                24.4940

                     64                     65                     66
                      A                      A                      A
 Frequencies --   1675.3063              2981.3617              3032.6516
 Red. masses --      5.9114                 1.0821                 1.0399
 Frc consts  --      9.7752                 5.6671                 5.6348
 IR Inten    --      2.9381               129.3702                65.4746

                     67                     68                     69
                      A                      A                      A
 Frequencies --   3039.1056              3083.0619              3140.1817
 Red. masses --      1.0474                 1.1003                 1.0893
 Frc consts  --      5.6998                 6.1619                 6.3285
 IR Inten    --     33.4758                46.8783                 4.4671

                     70                     71                     72
                      A                      A                      A
 Frequencies --   3141.1925              3184.7915              3201.6977
 Red. masses --      1.0953                 1.1074                 1.0865
 Frc consts  --      6.3677                 6.6180                 6.5620
 IR Inten    --     13.1712                10.4192                 0.1481

                     73                     74                     75
                      A                      A                      A
 Frequencies --   3211.0297              3221.8329              3231.3572
 Red. masses --      1.0902                 1.0945                 1.0949
 Frc consts  --      6.6230                 6.6936                 6.7356
 IR Inten    --     10.5572                20.2134                 9.4263

                     76                     77                     78
                      A                      A                      A
 Frequencies --   3239.5594              3535.3812              3613.6611
 Red. masses --      1.0932                 1.0523                 1.0960
 Frc consts  --      6.7595                 7.7492                 8.4328
 IR Inten    --      5.2760                81.1488                68.0324

 - Thermochemistry -
 -------------------
 Temperature   298.150 Kelvin.  Pressure   1.00000 Atm.
 Atom     1 has atomic number  6 and mass  12.00000

 Molecular mass:   211.07639 amu.
 Principal axes and moments of inertia in atomic units:
                           1         2         3
     Eigenvalues --  2320.261203806.786854210.71807
           X            0.99975  -0.00556   0.02172
           Y            0.00508   0.99974   0.02236
           Z           -0.02184  -0.02224   0.99951
 This molecule is an asymmetric top.
 Rotational symmetry number  1.
 Warning -- assumption of classical behavior for rotation
           may cause significant error
 Rotational temperatures (Kelvin)      0.03733     0.02275     0.02057
 Rotational constants (GHZ):           0.77782     0.47409     0.42861
    1 imaginary frequencies ignored.
 Zero-point vibrational energy     605622.0 (Joules/Mol)
                                  144.74713 (Kcal/Mol)
 Warning -- explicit consideration of  20 degrees of freedom as
           vibrations may cause significant error
 Vibrational temperatures:     48.66   112.10   127.77   151.01   194.53
          (Kelvin)            215.16   259.19   266.21   288.54   341.33
                              411.80   429.21   455.79   489.00   506.72
                              532.03   601.23   608.96   738.36   866.93
                              897.90   919.89  1002.18  1040.17  1058.24
                             1142.14  1248.90  1257.11  1329.69  1388.55
                             1458.41  1472.14  1478.19  1482.26  1489.44
                             1515.96  1531.95  1537.17  1549.58  1597.79
                             1614.67  1707.25  1741.32  1748.73  1774.04
                             1892.93  1904.44  1946.49  1959.56  2020.07
                             2047.78  2096.88  2119.20  2132.48  2145.37
                             2162.14  2165.19  2171.06  2225.23  2364.94
                             2369.90  2377.91  2410.39  4289.51  4363.31
                             4372.60  4435.84  4518.02  4519.48  4582.20
                             4606.53  4619.96  4635.50  4649.20  4661.00
                             5086.63  5199.25

 Zero-point correction=                           0.230669 (Hartree/Particle)
 Thermal correction to Energy=                    0.244860
 Thermal correction to Enthalpy=                  0.245804
 Thermal correction to Gibbs Free Energy=         0.189353
 Sum of electronic and zero-point Energies=          -1017.530245
 Sum of electronic and thermal Energies=             -1017.516055
 Sum of electronic and thermal Enthalpies=           -1017.515110
 Sum of electronic and thermal Free Energies=        -1017.571562

                     E (Thermal)             CV                S
                      KCal/Mol        Cal/Mol-Kelvin    Cal/Mol-Kelvin
 Total                  153.652             52.565            118.812
 Electronic               0.000              0.000              0.000
 Translational            0.889              2.981             41.945
 Rotational               0.889              2.981             31.987
 Vibrational            151.874             46.603             44.881
 Vibration     1          0.594              1.983              5.592
 Vibration     2          0.599              1.964              3.943
 Vibration     3          0.602              1.957              3.686
 Vibration     4          0.605              1.945              3.360
 Vibration     5          0.613              1.918              2.871
 Vibration     6          0.618              1.903              2.678
 Vibration     7          0.629              1.867              2.327
 Vibration     8          0.631              1.860              2.277
 Vibration     9          0.638              1.839              2.128
 Vibration    10          0.656              1.784              1.823
 Vibration    11          0.684              1.699              1.496
 Vibration    12          0.691              1.677              1.426
 Vibration    13          0.704              1.642              1.327
 Vibration    14          0.720              1.596              1.213
 Vibration    15          0.729              1.571              1.156
 Vibration    16          0.742              1.534              1.081
 Vibration    17          0.781              1.431              0.899
 Vibration    18          0.785              1.420              0.881
 Vibration    19          0.868              1.221              0.626
 Vibration    20          0.961              1.026              0.445

 Optimization completed.
    -- Stationary point found.
 Normal termination of Gaussian 16 at Fri Feb 26 05:47:47 2021.
