 Gaussian 16, Revision C.01,
 Gaussian 16:  ES64L-G16RevC.01  3-Jul-2019

 ----------------------------------------------------------------------
 # wb97xd def2tzvp opt=(ts, noeigen, calcfc, maxcycles=100, maxstep=10)
  freq=noraman scrf=(iefpcm, solvent=water)
 ----------------------------------------------------------------------

 ----------
 TS-807.out
 ----------
 Symbolic Z-matrix:
 Charge =  0 Multiplicity = 1

 SCF Done:  E(RwB97XD) =  -1495.91458760     A.U. after   16 cycles
 SCF Done:  E(RwB97XD) =  -1495.91389208     A.U. after   14 cycles
 SCF Done:  E(RwB97XD) =  -1495.91495242     A.U. after   14 cycles
 SCF Done:  E(RwB97XD) =  -1495.91694323     A.U. after   15 cycles
 SCF Done:  E(RwB97XD) =  -1495.91975251     A.U. after   15 cycles
 SCF Done:  E(RwB97XD) =  -1495.92234820     A.U. after   13 cycles
 SCF Done:  E(RwB97XD) =  -1495.92474398     A.U. after   13 cycles
 SCF Done:  E(RwB97XD) =  -1495.92603762     A.U. after   13 cycles
 SCF Done:  E(RwB97XD) =  -1495.92664084     A.U. after   12 cycles
 SCF Done:  E(RwB97XD) =  -1495.92734270     A.U. after   13 cycles
 SCF Done:  E(RwB97XD) =  -1495.92782464     A.U. after   10 cycles
 SCF Done:  E(RwB97XD) =  -1495.92776586     A.U. after   12 cycles
 SCF Done:  E(RwB97XD) =  -1495.92782917     A.U. after   11 cycles
 SCF Done:  E(RwB97XD) =  -1495.92784048     A.U. after   10 cycles
 SCF Done:  E(RwB97XD) =  -1495.92784155     A.U. after   10 cycles
 SCF Done:  E(RwB97XD) =  -1495.92784194     A.U. after    8 cycles
 SCF Done:  E(RwB97XD) =  -1495.92784219     A.U. after    8 cycles
 SCF Done:  E(RwB97XD) =  -1495.92784224     A.U. after    7 cycles
 SCF Done:  E(RwB97XD) =  -1495.92784213     A.U. after    7 cycles
 Optimization completed.
    -- Stationary point found.
 Normal termination of Gaussian 16 at Fri Jun  3 16:07:25 2022.

 ---------------------------------------------------------------------
 #N Geom=AllCheck Guess=TCheck SCRF=Check GenChk RwB97XD/def2TZVP Freq
 ---------------------------------------------------------------------

 Structure from the checkpoint file:  "/local/jobs/107288/Gau-2588550.chk"
 ----------
 TS-807.out
 ----------
 Charge =  0 Multiplicity = 1

                         Standard orientation:
 ---------------------------------------------------------------------
 Center     Atomic      Atomic             Coordinates (Angstroms)
 Number     Number       Type             X           Y           Z
 ---------------------------------------------------------------------
      1          6           0       -0.428920   -0.585857    0.013362
      2          6           0        0.504816    0.508954    0.159564
      3          8           0        0.215406    1.649413    0.532980
      4          6           0       -1.804208   -0.348651    0.167595
      5          6           0       -1.493246   -0.017557    2.910066
      6          1           0       -0.451211   -0.074399    2.599708
      7          1           0       -1.787546    1.026793    2.960522
      8          1           0       -1.609250   -0.482888    3.887523
      9          7           0       -2.301925   -0.712767    1.909096
     10          1           0       -2.123310   -1.711336    1.944613
     11          1           0       -3.298667   -0.592936    2.060023
     12         17           0       -2.873910   -1.631913   -0.560122
     13          6           0       -2.406914    0.988460   -0.181540
     14          6           0       -3.282086    1.706396    0.621382
     15          6           0       -3.830645    2.902871    0.177034
     16          6           0       -3.525881    3.389948   -1.081833
     17          6           0       -2.666947    2.667429   -1.900301
     18          6           0       -2.117585    1.480368   -1.454655
     19          1           0       -3.552819    1.370980    1.611396
     20          1           0       -4.501399    3.451204    0.826012
     21          1           0       -3.955597    4.321806   -1.426310
     22          1           0       -2.422971    3.031449   -2.890298
     23          1           0       -1.445011    0.921018   -2.092065
     24          6           0        0.088183   -1.976585   -0.153168
     25          6           0        0.469999   -2.742496    0.949101
     26          6           0        0.970368   -4.027798    0.793960
     27          6           0        1.108271   -4.570339   -0.474950
     28          6           0        0.744552   -3.819699   -1.584652
     29          6           0        0.240817   -2.538055   -1.422149
     30          1           0        0.387044   -2.320375    1.944254
     31          1           0        1.257453   -4.602917    1.665422
     32          1           0        1.501392   -5.571434   -0.599549
     33          1           0        0.853691   -4.233803   -2.579328
     34          1           0       -0.043752   -1.953873   -2.289199
     35          7           0        1.816071    0.183926   -0.162102
     36          6           0        2.976573    0.947397   -0.058781
     37          6           0        3.009443    2.291046    0.322935
     38          6           0        4.224282    2.959547    0.392637
     39          6           0        5.417557    2.324803    0.086086
     40          6           0        5.385573    0.990003   -0.297562
     41          6           0        4.184479    0.309553   -0.368393
     42          1           0        1.963574   -0.762193   -0.471048
     43          1           0        2.087535    2.795859    0.558509
     44          1           0        4.228938    4.000913    0.691600
     45          1           0        6.357122    2.858788    0.142825
     46          1           0        6.303833    0.470929   -0.543109
     47          1           0        4.174265   -0.732910   -0.666641
 ---------------------------------------------------------------------

 SCF Done:  E(RwB97XD) =  -1495.92784213     A.U. after    1 cycles

 The electronic state is 1-A.
 Alpha  occ. eigenvalues -- -101.69554 -19.19777 -14.50509 -14.45623 -10.41062
 Alpha  occ. eigenvalues --  -10.38059 -10.33548 -10.32154 -10.31381 -10.30068
 Alpha  occ. eigenvalues --  -10.29745 -10.29314 -10.29236 -10.29193 -10.29144
 Alpha  occ. eigenvalues --  -10.29093 -10.29051 -10.28999 -10.28978 -10.28867
 Alpha  occ. eigenvalues --  -10.28811 -10.28698 -10.28570 -10.28002 -10.27853
 Alpha  occ. eigenvalues --  -10.26348  -9.58157  -7.32778  -7.31952  -7.31911
 Alpha  occ. eigenvalues --   -1.12829  -1.06202  -1.03400  -0.98708  -0.96885
 Alpha  occ. eigenvalues --   -0.95345  -0.95096  -0.88793  -0.86835  -0.85572
 Alpha  occ. eigenvalues --   -0.85076  -0.84852  -0.84275  -0.81769  -0.79870
 Alpha  occ. eigenvalues --   -0.75137  -0.72098  -0.71112  -0.70965  -0.70398
 Alpha  occ. eigenvalues --   -0.69223  -0.67277  -0.65584  -0.64053  -0.62456
 Alpha  occ. eigenvalues --   -0.61501  -0.60688  -0.59001  -0.58090  -0.57144
 Alpha  occ. eigenvalues --   -0.56773  -0.55106  -0.54586  -0.53848  -0.53498
 Alpha  occ. eigenvalues --   -0.52687  -0.52384  -0.51726  -0.51265  -0.51185
 Alpha  occ. eigenvalues --   -0.50921  -0.50816  -0.49973  -0.48797  -0.48301
 Alpha  occ. eigenvalues --   -0.47292  -0.46580  -0.46407  -0.45875  -0.44512
 Alpha  occ. eigenvalues --   -0.44328  -0.43050  -0.42835  -0.42743  -0.42451
 Alpha  occ. eigenvalues --   -0.40141  -0.39654  -0.39228  -0.34939  -0.34160
 Alpha  occ. eigenvalues --   -0.33870  -0.33719  -0.33547  -0.31314  -0.30135
 Alpha  occ. eigenvalues --   -0.26742
 Alpha virt. eigenvalues --    0.03036   0.04230   0.04829   0.05052   0.05444
 Alpha virt. eigenvalues --    0.05599   0.08266   0.09731   0.10420   0.12093
 Alpha virt. eigenvalues --    0.13109   0.13205   0.13856   0.14342   0.14950

 Mulliken charges:
               1
     1  C   -0.307455
     2  C    0.421910
     3  O   -0.541247
     4  C    0.246581
     5  C   -0.301477
     6  H    0.158183
     7  H    0.160185
     8  H    0.168738
     9  N   -0.290896
    10  H    0.287188
    11  H    0.291295
    12  Cl  -0.132812
    13  C    0.271001
    14  C   -0.243425
    15  C   -0.167450
    16  C   -0.148014
    17  C   -0.136822
    18  C   -0.303352
    19  H    0.136939
    20  H    0.143900
    21  H    0.144749
    22  H    0.142689
    23  H    0.161624
    24  C    0.025336
    25  C   -0.243718
    26  C   -0.170417
    27  C   -0.115095
    28  C   -0.153534
    29  C   -0.209281
    30  H    0.160699
    31  H    0.140309
    32  H    0.144052
    33  H    0.140392
    34  H    0.146492
    35  N   -0.250683
    36  C    0.295310
    37  C   -0.296655
    38  C   -0.116116
    39  C   -0.200213
    40  C   -0.101180
    41  C   -0.322589
    42  H    0.247362
    43  H    0.157900
    44  H    0.139075
    45  H    0.138842
    46  H    0.141395
    47  H    0.140285
 Sum of Mulliken charges =  -0.00000

 Dipole moment (field-independent basis, Debye):
    X=             -4.0101    Y=             -4.4607    Z=              4.3820  Tot=              7.4284
 Quadrupole moment (field-independent basis, Debye-Ang):
   XX=           -148.6431   YY=           -151.7664   ZZ=           -140.0825
   XY=            -11.5562   XZ=            -17.2438   YZ=             -5.6215

  Exact polarizability:     438.164     -15.345     439.913     -26.036       9.348     347.810
 Approx polarizability:     329.282     -14.955     350.875     -20.109       9.483     302.904

 ******    1 imaginary frequencies (negative Signs) ******

                      1                      2                      3
                      A                      A                      A
 Frequencies --   -346.8683                19.5953                25.7081
 Red. masses --      5.6187                 3.7402                 5.0970
 Frc consts  --      0.3983                 0.0008                 0.0020
 IR Inten    --    904.4926                 0.4743                 0.9213

                      4                      5                      6
                      A                      A                      A
 Frequencies --     33.4269                42.9256                50.0514
 Red. masses --      4.7684                 4.5967                 4.7306
 Frc consts  --      0.0031                 0.0050                 0.0070
 IR Inten    --      0.4976                 1.1344                 0.8280

                      7                      8                      9
                      A                      A                      A
 Frequencies --     54.8850                66.3307                83.1777
 Red. masses --      4.0693                 4.7459                 5.3378
 Frc consts  --      0.0072                 0.0123                 0.0218
 IR Inten    --      0.2175                 2.5329                 3.6241

                     10                     11                     12
                      A                      A                      A
 Frequencies --    105.9897               130.2029               136.0771
 Red. masses --      6.6532                 4.1636                 4.3786
 Frc consts  --      0.0440                 0.0416                 0.0478
 IR Inten    --      2.0734                 9.2362                 1.6506

                     13                     14                     15
                      A                      A                      A
 Frequencies --    175.2832               191.3343               199.8982
 Red. masses --      2.6540                 6.1609                 1.8480
 Frc consts  --      0.0480                 0.1329                 0.0435
 IR Inten    --      0.4889                20.0320                 4.1845

                     16                     17                     18
                      A                      A                      A
 Frequencies --    215.2591               222.8835               243.4835
 Red. masses --      3.2496                 4.4016                 4.5811
 Frc consts  --      0.0887                 0.1288                 0.1600
 IR Inten    --      1.9419                 9.8833                 3.3127

                     19                     20                     21
                      A                      A                      A
 Frequencies --    248.2614               268.2119               276.3108
 Red. masses --      5.1982                 4.6666                 2.6951
 Frc consts  --      0.1888                 0.1978                 0.1212
 IR Inten    --      1.7884                 4.8031                 9.6681

                     22                     23                     24
                      A                      A                      A
 Frequencies --    308.7424               348.8942               361.7220
 Red. masses --      3.8142                 6.0726                 7.1784
 Frc consts  --      0.2142                 0.4355                 0.5534
 IR Inten    --     21.4254                19.0137                17.5906

                     25                     26                     27
                      A                      A                      A
 Frequencies --    391.3395               424.3362               424.6277
 Red. masses --      6.9443                 2.8966                 2.9923
 Frc consts  --      0.6266                 0.3073                 0.3179
 IR Inten    --      1.0923                 1.1996                 0.2135

                     28                     29                     30
                      A                      A                      A
 Frequencies --    424.9101               472.1797               496.8103
 Red. masses --      2.8712                 5.7257                 4.6318
 Frc consts  --      0.3054                 0.7521                 0.6736
 IR Inten    --      0.6154               110.3587                11.4751

                     31                     32                     33
                      A                      A                      A
 Frequencies --    527.5997               533.6021               562.8405
 Red. masses --      2.7417                 3.5635                 1.5303
 Frc consts  --      0.4497                 0.5978                 0.2856
 IR Inten    --     21.9027                29.8299                70.0684

                     34                     35                     36
                      A                      A                      A
 Frequencies --    575.6685               596.9064               619.7356
 Red. masses --      2.6090                 3.4233                 5.5219
 Frc consts  --      0.5094                 0.7186                 1.2495
 IR Inten    --    118.2006                98.6000                30.4004

                     37                     38                     39
                      A                      A                      A
 Frequencies --    636.6514               639.7978               641.0645
 Red. masses --      6.2679                 6.2589                 6.5519
 Frc consts  --      1.4968                 1.5095                 1.5864
 IR Inten    --      2.2394                 0.9648                12.8503

                     40                     41                     42
                      A                      A                      A
 Frequencies --    694.4033               699.8379               719.1984
 Red. masses --      4.9019                 4.0016                 1.8827
 Frc consts  --      1.3926                 1.1547                 0.5738
 IR Inten    --     74.2815                80.2603                28.3633

                     43                     44                     45
                      A                      A                      A
 Frequencies --    719.4302               731.2574               737.3945
 Red. masses --      1.9017                 1.4996                 1.8511
 Frc consts  --      0.5799                 0.4724                 0.5930
 IR Inten    --     51.4501               149.8456               214.7683

                     46                     47                     48
                      A                      A                      A
 Frequencies --    782.2907               782.8366               797.4205
 Red. masses --      2.4058                 1.8828                 5.0518
 Frc consts  --      0.8674                 0.6798                 1.8926
 IR Inten    --     27.4980                96.7077                67.1530

                     49                     50                     51
                      A                      A                      A
 Frequencies --    806.1902               861.3737               865.4609
 Red. masses --      2.5525                 1.2623                 4.3784
 Frc consts  --      0.9775                 0.5518                 1.9322
 IR Inten    --      2.1043                 0.0777                19.6074

                     52                     53                     54
                      A                      A                      A
 Frequencies --    868.9104               882.4205               896.2395
 Red. masses --      1.3145                 1.2487                 4.2293
 Frc consts  --      0.5847                 0.5729                 2.0016
 IR Inten    --      1.1600                 0.6258                88.5456

                     55                     56                     57
                      A                      A                      A
 Frequencies --    901.5727               930.3655               956.5018
 Red. masses --      3.8046                 1.4754                 1.5602
 Frc consts  --      1.8221                 0.7524                 0.8410
 IR Inten    --     59.4978                14.6799                 2.3748

                     58                     59                     60
                      A                      A                      A
 Frequencies --    963.9837               999.7702              1007.7404
 Red. masses --      1.5178                 1.3411                 1.3297
 Frc consts  --      0.8310                 0.7898                 0.7956
 IR Inten    --      4.7762                 0.0336                 7.4107

                     61                     62                     63
                      A                      A                      A
 Frequencies --   1014.7151              1015.5214              1016.5677
 Red. masses --      1.2888                 1.3267                 1.3471
 Frc consts  --      0.7818                 0.8061                 0.8202
 IR Inten    --      1.2166                10.6211                12.5582

                     64                     65                     66
                      A                      A                      A
 Frequencies --   1018.6591              1025.5994              1027.0481
 Red. masses --      5.0234                 5.0204                 5.6699
 Frc consts  --      3.0712                 3.1113                 3.5238
 IR Inten    --      7.2265                 1.8587                 0.6974

                     67                     68                     69
                      A                      A                      A
 Frequencies --   1028.5080              1031.3802              1047.0977
 Red. masses --      1.3104                 1.3163                 4.0833
 Frc consts  --      0.8167                 0.8250                 2.6378
 IR Inten    --      0.2835                 0.1317                34.9114

                     70                     71                     72
                      A                      A                      A
 Frequencies --   1059.0559              1065.8377              1067.6236
 Red. masses --      2.0897                 2.1535                 2.3789
 Frc consts  --      1.3809                 1.4413                 1.5976
 IR Inten    --     28.9911                17.4946                 6.1373

                     73                     74                     75
                      A                      A                      A
 Frequencies --   1077.7990              1097.9894              1108.3173
 Red. masses --      2.4977                 1.4245                 1.5462
 Frc consts  --      1.7095                 1.0118                 1.1190
 IR Inten    --     36.5366                98.5608                13.0672

                     76                     77                     78
                      A                      A                      A
 Frequencies --   1115.4391              1125.6138              1179.2442
 Red. masses --      1.5458                 1.5784                 1.2434
 Frc consts  --      1.1332                 1.1783                 1.0187
 IR Inten    --     23.1866                 6.4682                 2.6696

                     79                     80                     81
                      A                      A                      A
 Frequencies --   1182.3186              1183.6108              1186.7732
 Red. masses --      1.1705                 1.5280                 1.6228
 Frc consts  --      0.9641                 1.2612                 1.3467
 IR Inten    --      1.7433                13.8653                15.7643

                     82                     83                     84
                      A                      A                      A
 Frequencies --   1203.5330              1206.0172              1220.7311
 Red. masses --      1.1581                 1.1241                 1.1335
 Frc consts  --      0.9883                 0.9633                 0.9952
 IR Inten    --     48.7363                 1.1821                 9.7932

                     85                     86                     87
                      A                      A                      A
 Frequencies --   1244.5283              1259.7984              1274.2342
 Red. masses --      3.2582                 1.4526                 2.8850
 Frc consts  --      2.9733                 1.3583                 2.7599
 IR Inten    --    383.1530                56.3435               623.8412

                     88                     89                     90
                      A                      A                      A
 Frequencies --   1303.6894              1316.1549              1325.2288
 Red. masses --      4.5400                 5.5878                 4.8822
 Frc consts  --      4.5462                 5.7030                 5.0519
 IR Inten    --      3.2563               445.8618                97.3125

                     91                     92                     93
                      A                      A                      A
 Frequencies --   1340.7474              1344.9052              1355.2545
 Red. masses --      2.4671                 1.3701                 1.4628
 Frc consts  --      2.6129                 1.4601                 1.5830
 IR Inten    --    585.5246                24.1533                 5.9827

                     94                     95                     96
                      A                      A                      A
 Frequencies --   1359.0582              1363.9527              1421.1586
 Red. masses --      1.9876                 1.4163                 4.1422
 Frc consts  --      2.1630                 1.5524                 4.9291
 IR Inten    --     16.4428                 7.6509               355.0357

                     97                     98                     99
                      A                      A                      A
 Frequencies --   1465.2959              1477.2983              1485.8909
 Red. masses --      1.2577                 2.0597                 2.1665
 Frc consts  --      1.5911                 2.6484                 2.8182
 IR Inten    --     27.9240               253.5419                 4.2610

                    100                    101                    102
                      A                      A                      A
 Frequencies --   1490.3735              1490.7812              1502.9956
 Red. masses --      1.1153                 1.9523                 1.0444
 Frc consts  --      1.4596                 2.5564                 1.3900
 IR Inten    --      0.8063                46.4707                12.0708

                    103                    104                    105
                      A                      A                      A
 Frequencies --   1542.0268              1543.1484              1545.5727
 Red. masses --      2.3609                 2.4199                 2.4714
 Frc consts  --      3.3076                 3.3952                 3.4783
 IR Inten    --     40.7257               238.9187                55.9750

                    106                    107                    108
                      A                      A                      A
 Frequencies --   1567.9964              1643.0128              1650.4255
 Red. masses --      2.0094                 5.6485                 2.2729
 Frc consts  --      2.9108                 8.9839                 3.6477
 IR Inten    --    570.4733                 5.2994                91.8287

                    109                    110                    111
                      A                      A                      A
 Frequencies --   1656.5280              1660.5810              1670.2094
 Red. masses --      5.5137                 1.6231                 5.5507
 Frc consts  --      8.9144                 2.6370                 9.1231
 IR Inten    --    147.2066                46.1202                62.7479

                    112                    113                    114
                      A                      A                      A
 Frequencies --   1671.3687              1676.0031              1686.6212
 Red. masses --      4.8426                 5.4195                 5.4392
 Frc consts  --      7.9703                 8.9694                 9.1164
 IR Inten    --     35.8703                 0.7456               704.2843

                    115                    116                    117
                      A                      A                      A
 Frequencies --   3084.3906              3165.3382              3183.6778
 Red. masses --      1.0333                 1.1049                 1.0881
 Frc consts  --      5.7920                 6.5223                 6.4981
 IR Inten    --     30.8780                 3.6504                15.8887

                    118                    119                    120
                      A                      A                      A
 Frequencies --   3188.0686              3188.7035              3191.9525
 Red. masses --      1.0875                 1.1045                 1.0877
 Frc consts  --      6.5126                 6.6169                 6.5293
 IR Inten    --     12.3264                 7.9949                 2.6257

                    121                    122                    123
                      A                      A                      A
 Frequencies --   3194.2253              3198.0089              3201.4570
 Red. masses --      1.0882                 1.0860                 1.0910
 Frc consts  --      6.5415                 6.5441                 6.5885
 IR Inten    --      3.5219                 0.5999                11.2545

                    124                    125                    126
                      A                      A                      A
 Frequencies --   3204.3229              3206.0942              3209.4342
 Red. masses --      1.0929                 1.0891                 1.0950
 Frc consts  --      6.6118                 6.5960                 6.6453
 IR Inten    --     31.8478                 3.7762                43.2547

                    127                    128                    129
                      A                      A                      A
 Frequencies --   3215.0604              3220.2729              3220.4725
 Red. masses --      1.0934                 1.0979                 1.0988
 Frc consts  --      6.6591                 6.7079                 6.7145
 IR Inten    --     23.0256                24.6365                19.7507

                    130                    131                    132
                      A                      A                      A
 Frequencies --   3223.4819              3240.6579              3272.6250
 Red. masses --      1.0976                 1.0926                 1.0921
 Frc consts  --      6.7196                 6.7605                 6.8915
 IR Inten    --     25.1879                17.8860                 6.6754

                    133                    134                    135
                      A                      A                      A
 Frequencies --   3511.3187              3584.6770              3638.7115
 Red. masses --      1.0518                 1.0953                 1.0762
 Frc consts  --      7.6403                 8.2923                 8.3951
 IR Inten    --     47.2996                61.0114               105.0467

 - Thermochemistry -
 -------------------
 Temperature   298.150 Kelvin.  Pressure   1.00000 Atm.
 Atom     1 has atomic number  6 and mass  12.00000

 Molecular mass:   364.13424 amu.
 Principal axes and moments of inertia in atomic units:
                           1         2         3
     Eigenvalues --  7922.99622********************
           X            0.99959  -0.02726  -0.00904
           Y            0.02723   0.99962  -0.00292
           Z            0.00911   0.00267   0.99995
 This molecule is an asymmetric top.
 Rotational symmetry number  1.
 Warning -- assumption of classical behavior for rotation
           may cause significant error
 Rotational temperatures (Kelvin)      0.01093     0.00771     0.00535
 Rotational constants (GHZ):           0.22779     0.16069     0.11155
    1 imaginary frequencies ignored.
 Zero-point vibrational energy    1007041.0 (Joules/Mol)
                                  240.68859 (Kcal/Mol)
 Warning -- explicit consideration of  35 degrees of freedom as
           vibrations may cause significant error
 Vibrational temperatures:     28.19    36.99    48.09    61.76    72.01
          (Kelvin)             78.97    95.44   119.67   152.50   187.33
                              195.78   252.19   275.29   287.61   309.71
                              320.68   350.32   357.19   385.90   397.55
                              444.21   501.98   520.44   563.05   610.53
                              610.94   611.35   679.36   714.80   759.10
                              767.73   809.80   828.26   858.82   891.66
                              916.00   920.53   922.35   999.09  1006.91
                             1034.77  1035.10  1052.12  1060.95  1125.54
                             1126.33  1147.31  1159.93  1239.32  1245.21
                             1250.17  1269.61  1289.49  1297.16  1338.59
                             1376.19  1386.96  1438.45  1449.91  1459.95
                             1461.11  1462.61  1465.62  1475.61  1477.69
                             1479.79  1483.93  1506.54  1523.75  1533.50
                             1536.07  1550.71  1579.76  1594.62  1604.87
                             1619.51  1696.67  1701.09  1702.95  1707.50
                             1731.62  1735.19  1756.36  1790.60  1812.57
                             1833.34  1875.72  1893.65  1906.71  1929.04
                             1935.02  1949.91  1955.38  1962.42  2044.73
                             2108.23  2125.50  2137.87  2144.32  2144.90
                             2162.48  2218.63  2220.25  2223.73  2256.00
                             2363.93  2374.59  2383.37  2389.21  2403.06
                             2404.73  2411.39  2426.67  4437.75  4554.22
                             4580.60  4586.92  4587.83  4592.51  4595.78
                             4601.22  4606.18  4610.31  4612.85  4617.66
                             4625.75  4633.25  4633.54  4637.87  4662.58
                             4708.58  5052.00  5157.55  5235.29

 Zero-point correction=                           0.383562 (Hartree/Particle)
 Thermal correction to Energy=                    0.406491
 Thermal correction to Enthalpy=                  0.407435
 Thermal correction to Gibbs Free Energy=         0.328707
 Sum of electronic and zero-point Energies=          -1495.544280
 Sum of electronic and thermal Energies=             -1495.521352
 Sum of electronic and thermal Enthalpies=           -1495.520407
 Sum of electronic and thermal Free Energies=        -1495.599135

                     E (Thermal)             CV                S
                      KCal/Mol        Cal/Mol-Kelvin    Cal/Mol-Kelvin
 Total                  255.077             88.584            165.696
 Electronic               0.000              0.000              0.000
 Translational            0.889              2.981             43.570
 Rotational               0.889              2.981             35.619
 Vibrational            253.299             82.622             86.506
 Vibration     1          0.593              1.986              6.675
 Vibration     2          0.593              1.985              6.136
 Vibration     3          0.594              1.983              5.615
 Vibration     4          0.595              1.980              5.119
 Vibration     5          0.595              1.978              4.815
 Vibration     6          0.596              1.976              4.633
 Vibration     7          0.598              1.970              4.259
 Vibration     8          0.600              1.961              3.814
 Vibration     9          0.605              1.944              3.341
 Vibration    10          0.612              1.923              2.943
 Vibration    11          0.614              1.917              2.858
 Vibration    12          0.627              1.873              2.378
 Vibration    13          0.634              1.852              2.215
 Vibration    14          0.638              1.840              2.134
 Vibration    15          0.645              1.818              1.999
 Vibration    16          0.649              1.806              1.936
 Vibration    17          0.659              1.774              1.777
 Vibration    18          0.662              1.766              1.743
 Vibration    19          0.673              1.732              1.608
 Vibration    20          0.678              1.717              1.556
 Vibration    21          0.698              1.657              1.369
 Vibration    22          0.726              1.578              1.171
 Vibration    23          0.736              1.551              1.115
 Vibration    24          0.759              1.489              0.995
 Vibration    25          0.786              1.417              0.877
 Vibration    26          0.787              1.417              0.876
 Vibration    27          0.787              1.416              0.875
 Vibration    28          0.829              1.312              0.731
 Vibration    29          0.852              1.257              0.666
 Vibration    30          0.883              1.189              0.593
 Vibration    31          0.889              1.176              0.579
 Vibration    32          0.919              1.112              0.518
 Vibration    33          0.932              1.084              0.493
 Vibration    34          0.955              1.038              0.455
 Vibration    35          0.980              0.990              0.417

 Optimization completed.
    -- Stationary point found.
 Normal termination of Gaussian 16 at Fri Jun  3 19:16:15 2022.
