 Gaussian 16, Revision A.03,
 Gaussian 16:  ES64L-G16RevA.03 25-Dec-2016

 ----------------------------------------------------------------------
 # wB97XD def2tzvp, opt=(ts, noeigen, calcfc, maxcycles=70, maxstep=1),
  freq=noraman, scrf=(iefpcm, solvent=water)
 ----------------------------------------------------------------------

 ------------------------
 0_iteration/TS-897-0.out
 ------------------------
 Symbolic Z-matrix:
 Charge =  0 Multiplicity = 1

 SCF Done:  E(RwB97XD) =  -826.032924062     A.U. after   15 cycles
 SCF Done:  E(RwB97XD) =  -826.032862017     A.U. after   10 cycles
 SCF Done:  E(RwB97XD) =  -826.032804921     A.U. after   10 cycles
 SCF Done:  E(RwB97XD) =  -826.032752418     A.U. after   10 cycles
 SCF Done:  E(RwB97XD) =  -826.032704695     A.U. after   10 cycles
 SCF Done:  E(RwB97XD) =  -826.032661860     A.U. after   10 cycles
 SCF Done:  E(RwB97XD) =  -826.032623668     A.U. after   10 cycles
 SCF Done:  E(RwB97XD) =  -826.032589924     A.U. after   10 cycles
 SCF Done:  E(RwB97XD) =  -826.032560689     A.U. after   10 cycles
 SCF Done:  E(RwB97XD) =  -826.032535996     A.U. after   10 cycles
 SCF Done:  E(RwB97XD) =  -826.032910584     A.U. after    9 cycles
 SCF Done:  E(RwB97XD) =  -826.032926148     A.U. after   10 cycles
 SCF Done:  E(RwB97XD) =  -826.032937828     A.U. after    9 cycles
 SCF Done:  E(RwB97XD) =  -826.032945168     A.U. after   10 cycles
 SCF Done:  E(RwB97XD) =  -826.032949464     A.U. after   10 cycles
 SCF Done:  E(RwB97XD) =  -826.032951876     A.U. after   10 cycles
 SCF Done:  E(RwB97XD) =  -826.032952488     A.U. after   10 cycles
 SCF Done:  E(RwB97XD) =  -826.032951941     A.U. after    9 cycles
 SCF Done:  E(RwB97XD) =  -826.032952269     A.U. after    8 cycles
 Optimization completed.
    -- Stationary point found.
 Normal termination of Gaussian 16 at Wed Feb 24 05:11:47 2021.

 ---------------------------------------------------------------------
 #N Geom=AllCheck Guess=TCheck SCRF=Check GenChk RwB97XD/def2TZVP Freq
 ---------------------------------------------------------------------

 Structure from the checkpoint file:  "/beegfs/scratch/user/q/tla25/Gau-3266.chk"
 ------------------------
 0_iteration/TS-897-0.out
 ------------------------
 Charge =  0 Multiplicity = 1

                         Standard orientation:
 ---------------------------------------------------------------------
 Center     Atomic      Atomic             Coordinates (Angstroms)
 Number     Number       Type             X           Y           Z
 ---------------------------------------------------------------------
      1          6           0       -0.832728   -0.426831   -0.079324
      2          6           0       -1.963350    0.071566    0.611394
      3          8           0       -3.147164   -0.088278    0.284198
      4          6           0        0.448448   -0.149863    0.406408
      5          6           0        0.409756    2.434213   -0.721524
      6          1           0        0.598702    3.012716    0.179664
      7          1           0        0.618609    3.051657   -1.594245
      8          1           0       -0.639962    2.132457   -0.741780
      9          7           0        1.227004    1.228932   -0.708805
     10          1           0        1.264044    0.797076   -1.624395
     11          1           0        2.180261    1.407768   -0.414753
     12         17           0        1.693140   -1.390863    0.022573
     13          6           0        0.719762    0.448539    1.761017
     14          1           0        0.157002    1.368079    1.907497
     15          1           0        0.433278   -0.260942    2.536938
     16          1           0        1.778786    0.669363    1.875788
     17          6           0       -1.036496   -1.192965   -1.356739
     18          1           0       -0.448507   -0.787153   -2.185784
     19          1           0       -0.764865   -2.247321   -1.260155
     20          1           0       -2.087338   -1.140841   -1.637813
     21          1           0       -1.757452    0.637556    1.535962
 ---------------------------------------------------------------------

 SCF Done:  E(RwB97XD) =  -826.032952269     A.U. after    1 cycles

 The electronic state is 1-A.
 Alpha  occ. eigenvalues -- -101.69612 -19.20114 -14.49010 -10.40346 -10.33885
 Alpha  occ. eigenvalues --  -10.31888 -10.29322 -10.26853 -10.26319  -9.58222
 Alpha  occ. eigenvalues --   -7.32831  -7.32027  -7.31979  -1.10204  -1.04805
 Alpha  occ. eigenvalues --   -0.97537  -0.88329  -0.84168  -0.79267  -0.76098
 Alpha  occ. eigenvalues --   -0.70143  -0.63665  -0.60216  -0.58443  -0.57751
 Alpha  occ. eigenvalues --   -0.55820  -0.53712  -0.50280  -0.49708  -0.49211
 Alpha  occ. eigenvalues --   -0.48407  -0.47473  -0.45318  -0.44746  -0.44470
 Alpha  occ. eigenvalues --   -0.44197  -0.39727  -0.38745  -0.31818  -0.27673
 Alpha virt. eigenvalues --    0.04256   0.08270   0.09873   0.13136   0.14179
 Alpha virt. eigenvalues --    0.14463   0.15694   0.16844   0.18383   0.18980
 Alpha virt. eigenvalues --    0.19525   0.20183   0.20634   0.21634   0.22248

 Mulliken charges:
               1
     1  C   -0.143112
     2  C    0.105402
     3  O   -0.531059
     4  C    0.162409
     5  C   -0.310244
     6  H    0.164782
     7  H    0.162358
     8  H    0.155802
     9  N   -0.323694
    10  H    0.284241
    11  H    0.292488
    12  Cl  -0.128870
    13  C   -0.404167
    14  H    0.153875
    15  H    0.168054
    16  H    0.156922
    17  C   -0.404121
    18  H    0.111178
    19  H    0.127466
    20  H    0.127623
    21  H    0.072667
 Sum of Mulliken charges =  -0.00000

 Dipole moment (field-independent basis, Debye):
    X=              9.2266    Y=              5.5775    Z=             -1.0853  Tot=             10.8359
 Quadrupole moment (field-independent basis, Debye-Ang):
   XX=            -84.0398   YY=            -57.2199   ZZ=            -56.7058
   XY=              4.8396   XZ=             -0.5494   YZ=             -1.4648

  Exact polarizability: 180.680   3.252 130.415  -6.672   2.421 119.200
 Approx polarizability: 143.949   0.680 107.425  -4.519   1.704  99.983

 ******    1 imaginary frequencies (negative Signs) ******

                      1                      2                      3
                      A                      A                      A
 Frequencies --   -368.5395                62.7497                66.2883
 Red. masses --      5.6456                 2.1054                 2.1419
 Frc consts  --      0.4518                 0.0049                 0.0055
 IR Inten    --    836.7246                 0.9881                 2.1466

                      4                      5                      6
                      A                      A                      A
 Frequencies --     93.1484               146.8970               181.4529
 Red. masses --      1.5459                 1.7411                 1.3644
 Frc consts  --      0.0079                 0.0221                 0.0265
 IR Inten    --      2.1346                 7.5898                 2.7369

                      7                      8                      9
                      A                      A                      A
 Frequencies --    202.7566               225.2062               261.4197
 Red. masses --      3.8178                 3.3245                 1.5796
 Frc consts  --      0.0925                 0.0993                 0.0636
 IR Inten    --     10.5559                 5.8615                 1.4299

                     10                     11                     12
                      A                      A                      A
 Frequencies --    286.2131               301.6688               312.3997
 Red. masses --      2.6535                 1.9720                 3.4845
 Frc consts  --      0.1281                 0.1057                 0.2004
 IR Inten    --     14.9795                 8.0701                23.9942

                     13                     14                     15
                      A                      A                      A
 Frequencies --    361.7940               367.4887               401.9230
 Red. masses --      3.0512                 2.8571                 4.9791
 Frc consts  --      0.2353                 0.2273                 0.4739
 IR Inten    --      8.2107                19.5418                 7.9188

                     16                     17                     18
                      A                      A                      A
 Frequencies --    506.7162               568.6691               664.7024
 Red. masses --      2.8311                 4.1683                 1.6624
 Frc consts  --      0.4283                 0.7942                 0.4327
 IR Inten    --     58.2431                66.8376                35.8387

                     19                     20                     21
                      A                      A                      A
 Frequencies --    720.7544               842.7819               982.1033
 Red. masses --      2.7889                 2.9699                 1.6210
 Frc consts  --      0.8536                 1.2428                 0.9212
 IR Inten    --    243.1975                50.7689               193.0513

                     22                     23                     24
                      A                      A                      A
 Frequencies --   1005.5463              1019.0890              1036.0685
 Red. masses --      1.0974                 1.5932                 1.1744
 Frc consts  --      0.6538                 0.9749                 0.7427
 IR Inten    --     40.6355                 4.1008                50.0285

                     25                     26                     27
                      A                      A                      A
 Frequencies --   1062.9995              1065.0492              1085.4320
 Red. masses --      1.4404                 1.5073                 3.3986
 Frc consts  --      0.9590                 1.0074                 2.3592
 IR Inten    --     50.9153                49.2052                 2.5526

                     28                     29                     30
                      A                      A                      A
 Frequencies --   1102.7243              1133.4489              1217.0841
 Red. masses --      1.9349                 2.8774                 1.3928
 Frc consts  --      1.3862                 2.1780                 1.2155
 IR Inten    --    112.7138                13.3118                26.8696

                     31                     32                     33
                      A                      A                      A
 Frequencies --   1337.4576              1350.6445              1405.3195
 Red. masses --      1.3281                 2.4544                 1.3085
 Frc consts  --      1.3997                 2.6380                 1.5226
 IR Inten    --      8.4655               630.2960               220.9412

                     34                     35                     36
                      A                      A                      A
 Frequencies --   1416.2433              1430.8875              1454.2682
 Red. masses --      1.3135                 2.2755                 1.1848
 Frc consts  --      1.5522                 2.7450                 1.4763
 IR Inten    --     33.4094               106.6239                 9.3055

                     37                     38                     39
                      A                      A                      A
 Frequencies --   1475.1092              1482.0969              1485.7430
 Red. masses --      1.2283                 1.0602                 1.0726
 Frc consts  --      1.5747                 1.3721                 1.3951
 IR Inten    --     12.8543                35.1570                 0.9016

                     40                     41                     42
                      A                      A                      A
 Frequencies --   1489.8034              1496.0617              1505.6996
 Red. masses --      1.0608                 1.0516                 1.0425
 Frc consts  --      1.3872                 1.3867                 1.3925
 IR Inten    --     10.7861                 5.2137                28.6518

                     43                     44                     45
                      A                      A                      A
 Frequencies --   1520.3025              1645.4061              1647.1743
 Red. masses --      1.8334                 1.1319                 5.0258
 Frc consts  --      2.4968                 1.8055                 8.0341
 IR Inten    --    261.7332               216.6787               929.4134

                     46                     47                     48
                      A                      A                      A
 Frequencies --   2965.4785              3031.7474              3060.8108
 Red. masses --      1.0812                 1.0409                 1.0359
 Frc consts  --      5.6022                 5.6371                 5.7178
 IR Inten    --    141.2133                60.0063                31.5264

                     49                     50                     51
                      A                      A                      A
 Frequencies --   3081.2360              3082.7073              3137.0651
 Red. masses --      1.0365                 1.0995                 1.1016
 Frc consts  --      5.7979                 6.1563                 6.3871
 IR Inten    --      8.9258                47.0725                 6.9405

                     52                     53                     54
                      A                      A                      A
 Frequencies --   3141.4817              3158.7286              3168.6345
 Red. masses --      1.0975                 1.1026                 1.1044
 Frc consts  --      6.3813                 6.4818                 6.5330
 IR Inten    --     12.6434                 9.7967                12.7814

                     55                     56                     57
                      A                      A                      A
 Frequencies --   3172.4976              3531.1143              3612.2258
 Red. masses --      1.1038                 1.0508                 1.0963
 Frc consts  --      6.5455                 7.7199                 8.4283
 IR Inten    --     10.8117                56.8126                50.7404

 - Thermochemistry -
 -------------------
 Temperature   298.150 Kelvin.  Pressure   1.00000 Atm.
 Atom     1 has atomic number  6 and mass  12.00000

 Molecular mass:   149.06074 amu.
 Principal axes and moments of inertia in atomic units:
                           1         2         3
     Eigenvalues --  1169.309081748.818722122.06201
           X            0.99659   0.08088   0.01632
           Y           -0.08131   0.99630   0.02795
           Z           -0.01400  -0.02918   0.99948
 This molecule is an asymmetric top.
 Rotational symmetry number  1.
 Warning -- assumption of classical behavior for rotation
           may cause significant error
 Rotational temperatures (Kelvin)      0.07407     0.04953     0.04082
 Rotational constants (GHZ):           1.54343     1.03198     0.85047
    1 imaginary frequencies ignored.
 Zero-point vibrational energy     463974.7 (Joules/Mol)
                                  110.89263 (Kcal/Mol)
 Warning -- explicit consideration of  16 degrees of freedom as
           vibrations may cause significant error
 Vibrational temperatures:     90.28    95.37   134.02   211.35   261.07
          (Kelvin)            291.72   324.02   376.12   411.80   434.03
                              449.47   520.54   528.73   578.28   729.05
                              818.19   956.36  1037.00  1212.58  1413.03
                             1446.76  1466.24  1490.67  1529.42  1532.37
                             1561.69  1586.57  1630.78  1751.11  1924.30
                             1943.28  2021.94  2037.66  2058.73  2092.37
                             2122.35  2132.41  2137.65  2143.49  2152.50
                             2166.37  2187.38  2367.37  2369.92  4266.66
                             4362.01  4403.82  4433.21  4435.33  4513.54
                             4519.89  4544.71  4558.96  4564.52  5080.49
                             5197.19

 Zero-point correction=                           0.176719 (Hartree/Particle)
 Thermal correction to Energy=                    0.188026
 Thermal correction to Enthalpy=                  0.188971
 Thermal correction to Gibbs Free Energy=         0.139563
 Sum of electronic and zero-point Energies=           -825.856234
 Sum of electronic and thermal Energies=              -825.844926
 Sum of electronic and thermal Enthalpies=            -825.843982
 Sum of electronic and thermal Free Energies=         -825.893389

                     E (Thermal)             CV                S
                      KCal/Mol        Cal/Mol-Kelvin    Cal/Mol-Kelvin
 Total                  117.988             39.568            103.987
 Electronic               0.000              0.000              0.000
 Translational            0.889              2.981             40.908
 Rotational               0.889              2.981             29.852
 Vibrational            116.211             33.607             33.227
 Vibration     1          0.597              1.972              4.369
 Vibration     2          0.598              1.970              4.261
 Vibration     3          0.602              1.954              3.593
 Vibration     4          0.617              1.906              2.712
 Vibration     5          0.630              1.865              2.313
 Vibration     6          0.639              1.836              2.108
 Vibration     7          0.650              1.803              1.917
 Vibration     8          0.669              1.743              1.652
 Vibration     9          0.684              1.699              1.496
 Vibration    10          0.694              1.671              1.408
 Vibration    11          0.701              1.650              1.350
 Vibration    12          0.736              1.551              1.114
 Vibration    13          0.740              1.539              1.090
 Vibration    14          0.768              1.466              0.956
 Vibration    15          0.862              1.235              0.642
 Vibration    16          0.925              1.099              0.507

 Optimization completed.
    -- Stationary point found.
 Normal termination of Gaussian 16 at Wed Feb 24 05:24:06 2021.
