 Gaussian 16, Revision A.03,
 Gaussian 16:  ES64L-G16RevA.03 25-Dec-2016

 ----------------------------------------------------------------------
 # wB97XD def2tzvp, opt=(ts, noeigen, calcfc, maxcycles=70, maxstep=8),
  freq=noraman, scrf=(iefpcm, solvent=water)
 ----------------------------------------------------------------------

 ------------------------
 1_iteration/TS-880-1.out
 ------------------------
 Symbolic Z-matrix:
 Charge =  0 Multiplicity = 1

 SCF Done:  E(RwB97XD) =  -1438.05803766     A.U. after   15 cycles
 SCF Done:  E(RwB97XD) =  -1438.05805782     A.U. after   12 cycles
 SCF Done:  E(RwB97XD) =  -1438.05809767     A.U. after   10 cycles
 SCF Done:  E(RwB97XD) =  -1438.05807150     A.U. after   12 cycles
 SCF Done:  E(RwB97XD) =  -1438.05810554     A.U. after   11 cycles
 SCF Done:  E(RwB97XD) =  -1438.05810570     A.U. after    8 cycles
 Optimization completed.
    -- Stationary point found.
 Normal termination of Gaussian 16 at Thu Feb 25 15:52:48 2021.

 ---------------------------------------------------------------------
 #N Geom=AllCheck Guess=TCheck SCRF=Check GenChk RwB97XD/def2TZVP Freq
 ---------------------------------------------------------------------

 Structure from the checkpoint file:  "/beegfs/scratch/user/q/tla25/Gau-14568.chk"
 ------------------------
 1_iteration/TS-880-1.out
 ------------------------
 Charge =  0 Multiplicity = 1

                         Standard orientation:
 ---------------------------------------------------------------------
 Center     Atomic      Atomic             Coordinates (Angstroms)
 Number     Number       Type             X           Y           Z
 ---------------------------------------------------------------------
      1          6           0        0.629270    0.277671   -0.272173
      2          6           0       -0.404778   -0.694410   -0.506442
      3          8           0       -0.147281   -1.800080   -0.989957
      4          6           0        1.932814   -0.085569   -0.533008
      5          6           0        3.988333   -1.690270    0.895343
      6          1           0        4.745510   -0.948661    0.647390
      7          1           0        4.300938   -2.230185    1.790719
      8          1           0        3.903464   -2.395911    0.069704
      9          7           0        2.706047   -1.019235    1.081240
     10          1           0        1.966730   -1.673017    1.309236
     11          1           0        2.743316   -0.318278    1.811674
     12         17           0        3.169808    1.103283   -0.788687
     13          1           0        2.070480   -0.971582   -1.134887
     14         17           0        0.278784    1.841605    0.417391
     15          6           0       -1.836441   -0.378814   -0.181683
     16          6           0       -2.242785   -0.081507    1.114795
     17          6           0       -3.586379    0.113560    1.397047
     18          6           0       -4.530281    0.033495    0.382794
     19          6           0       -4.128557   -0.259295   -0.913144
     20          6           0       -2.788106   -0.477795   -1.191456
     21          1           0       -1.509846   -0.011986    1.908594
     22          1           0       -3.896177    0.331462    2.411274
     23          1           0       -5.577835    0.196110    0.602651
     24          1           0       -4.861240   -0.324114   -1.707566
     25          1           0       -2.474019   -0.724031   -2.198232
 ---------------------------------------------------------------------

 SCF Done:  E(RwB97XD) =  -1438.05810570     A.U. after    1 cycles

 The electronic state is 1-A.
 Alpha  occ. eigenvalues -- -101.71228-101.69620 -19.22403 -14.47673 -10.39533
 Alpha  occ. eigenvalues --  -10.37505 -10.32445 -10.31684 -10.30165 -10.29539
 Alpha  occ. eigenvalues --  -10.29482 -10.29307 -10.29249 -10.29217  -9.59797
 Alpha  occ. eigenvalues --   -9.58150  -7.34452  -7.33592  -7.33523  -7.32796
 Alpha  occ. eigenvalues --   -7.31928  -7.31918  -1.13392  -1.03543  -0.99581
 Alpha  occ. eigenvalues --   -0.97051  -0.95210  -0.86742  -0.85473  -0.84438
 Alpha  occ. eigenvalues --   -0.78626  -0.75298  -0.70864  -0.69239  -0.64189
 Alpha  occ. eigenvalues --   -0.62972  -0.61300  -0.57860  -0.56566  -0.55586
 Alpha  occ. eigenvalues --   -0.54843  -0.54075  -0.53767  -0.51378  -0.51273
 Alpha  occ. eigenvalues --   -0.49396  -0.49051  -0.47868  -0.46995  -0.45589
 Alpha  occ. eigenvalues --   -0.44485  -0.43324  -0.42384  -0.41706  -0.39925
 Alpha  occ. eigenvalues --   -0.38705  -0.35043  -0.33937  -0.32798  -0.28641
 Alpha virt. eigenvalues --    0.00961   0.05077   0.05702   0.08359   0.10014
 Alpha virt. eigenvalues --    0.12780   0.13344   0.14284   0.15108   0.15972
 Alpha virt. eigenvalues --    0.16301   0.17235   0.17831   0.19217   0.19594

 Mulliken charges:
               1
     1  C   -0.135914
     2  C    0.271969
     3  O   -0.486783
     4  C   -0.016856
     5  C   -0.265324
     6  H    0.146250
     7  H    0.149724
     8  H    0.149483
     9  N   -0.385059
    10  H    0.282917
    11  H    0.281925
    12  Cl  -0.063763
    13  H    0.189188
    14  Cl  -0.135031
    15  C    0.193799
    16  C   -0.258985
    17  C   -0.128260
    18  C   -0.144905
    19  C   -0.140948
    20  C   -0.242226
    21  H    0.157440
    22  H    0.145360
    23  H    0.146633
    24  H    0.144892
    25  H    0.144473
 Sum of Mulliken charges =  -0.00000

 Dipole moment (field-independent basis, Debye):
    X=              4.2814    Y=             -1.5437    Z=              4.4541  Tot=              6.3681
 Quadrupole moment (field-independent basis, Debye-Ang):
   XX=            -70.7458   YY=           -104.2526   ZZ=            -87.9562
   XY=            -11.5051   XZ=              7.6323   YZ=             -4.8100

  Exact polarizability: 295.051  -7.974 175.857  10.000  10.345 193.277
 Approx polarizability: 210.441  -4.246 155.940   4.848  11.667 170.234

 ******    1 imaginary frequencies (negative Signs) ******

                      1                      2                      3
                      A                      A                      A
 Frequencies --   -353.6494                31.0843                38.6208
 Red. masses --      6.4789                 5.4048                 4.4523
 Frc consts  --      0.4774                 0.0031                 0.0039
 IR Inten    --    976.9250                 6.3672                 2.2421

                      4                      5                      6
                      A                      A                      A
 Frequencies --     50.8437                76.2840                83.7225
 Red. masses --      6.1058                 2.1469                 5.3928
 Frc consts  --      0.0093                 0.0074                 0.0223
 IR Inten    --      1.1859                 2.9641                 4.1483

                      7                      8                      9
                      A                      A                      A
 Frequencies --    109.6355               163.2016               186.7106
 Red. masses --      5.1170                 2.2337                 2.4277
 Frc consts  --      0.0362                 0.0351                 0.0499
 IR Inten    --      8.4886                 4.4613                 3.7562

                     10                     11                     12
                      A                      A                      A
 Frequencies --    190.7382               207.0976               219.0678
 Red. masses --      4.2445                 5.8568                 6.4018
 Frc consts  --      0.0910                 0.1480                 0.1810
 IR Inten    --     14.1632                 4.7031                 8.9990

                     13                     14                     15
                      A                      A                      A
 Frequencies --    246.8729               318.1808               372.4906
 Red. masses --      4.7201                 4.2945                 7.3376
 Frc consts  --      0.1695                 0.2562                 0.5998
 IR Inten    --      1.8616                 7.1608                18.8052

                     16                     17                     18
                      A                      A                      A
 Frequencies --    417.3286               425.1644               475.5597
 Red. masses --      2.8901                 7.0121                 7.4268
 Frc consts  --      0.2966                 0.7468                 0.9896
 IR Inten    --      2.1960                42.5449               120.2966

                     19                     20                     21
                      A                      A                      A
 Frequencies --    564.3792               598.9679               633.0397
 Red. masses --      5.3651                 1.7973                 3.9049
 Frc consts  --      1.0069                 0.3799                 0.9220
 IR Inten    --     13.2743                37.2408                16.4924

                     22                     23                     24
                      A                      A                      A
 Frequencies --    637.2389               689.6803               725.8076
 Red. masses --      4.3498                 5.0750                 1.5839
 Frc consts  --      1.0407                 1.4223                 0.4916
 IR Inten    --     18.9209                56.9248                90.7387

                     25                     26                     27
                      A                      A                      A
 Frequencies --    755.3184               795.9557               821.2095
 Red. masses --      4.2865                 5.7341                 2.8898
 Frc consts  --      1.4408                 2.1404                 1.1482
 IR Inten    --     69.7664               114.7406                14.1617

                     28                     29                     30
                      A                      A                      A
 Frequencies --    880.0887               935.4000               964.4905
 Red. masses --      1.2473                 3.9187                 1.4801
 Frc consts  --      0.5692                 2.0202                 0.8112
 IR Inten    --      0.4963                19.4443                 3.2994

                     31                     32                     33
                      A                      A                      A
 Frequencies --    999.4162              1012.2844              1013.3370
 Red. masses --      1.0954                 1.1807                 1.2815
 Frc consts  --      0.6446                 0.7128                 0.7753
 IR Inten    --     42.2834                92.3505                31.0809

                     34                     35                     36
                      A                      A                      A
 Frequencies --   1026.0149              1032.0821              1060.2315
 Red. masses --      6.0655                 1.3160                 2.3380
 Frc consts  --      3.7621                 0.8259                 1.5484
 IR Inten    --      2.1040                 0.3112                54.0456

                     37                     38                     39
                      A                      A                      A
 Frequencies --   1070.7077              1111.4829              1114.3333
 Red. masses --      3.6807                 1.2790                 1.3919
 Frc consts  --      2.4861                 0.9310                 1.0183
 IR Inten    --    200.5277                71.9024                14.0070

                     40                     41                     42
                      A                      A                      A
 Frequencies --   1158.7813              1184.8188              1205.7683
 Red. masses --      3.2978                 1.1388                 1.4240
 Frc consts  --      2.6090                 0.9419                 1.2198
 IR Inten    --     34.3775                 0.1345                17.8360

                     43                     44                     45
                      A                      A                      A
 Frequencies --   1209.4630              1244.5233              1319.2532
 Red. masses --      1.1251                 1.4394                 4.3727
 Frc consts  --      0.9697                 1.3136                 4.4839
 IR Inten    --      3.1178                59.9769                80.9905

                     46                     47                     48
                      A                      A                      A
 Frequencies --   1339.4869              1345.2382              1363.1525
 Red. masses --      4.8815                 1.4107                 1.4480
 Frc consts  --      5.1604                 1.5041                 1.5853
 IR Inten    --    208.4443                38.8423                11.8773

                     49                     50                     51
                      A                      A                      A
 Frequencies --   1411.3757              1466.5067              1489.5392
 Red. masses --      4.7351                 1.2178                 2.2345
 Frc consts  --      5.5574                 1.5431                 2.9210
 IR Inten    --   1611.9428                51.4746                24.5319

                     52                     53                     54
                      A                      A                      A
 Frequencies --   1491.2163              1508.1472              1542.5573
 Red. masses --      1.0404                 1.0306                 2.3154
 Frc consts  --      1.3631                 1.3812                 3.2461
 IR Inten    --     13.8896                11.6540                 2.7520

                     55                     56                     57
                      A                      A                      A
 Frequencies --   1642.6775              1646.5503              1660.5820
 Red. masses --      2.0337                 1.8283                 7.4161
 Frc consts  --      3.2333                 2.9205                12.0488
 IR Inten    --     79.5381               115.4186               210.7789

                     58                     59                     60
                      A                      A                      A
 Frequencies --   1675.1604              3061.7135              3137.2944
 Red. masses --      5.8311                 1.0352                 1.1028
 Frc consts  --      9.6408                 5.7173                 6.3954
 IR Inten    --      7.6230                58.7693                17.6298

                     61                     62                     63
                      A                      A                      A
 Frequencies --   3163.0211              3195.2149              3201.3314
 Red. masses --      1.1052                 1.0858                 1.0881
 Frc consts  --      6.5149                 6.5312                 6.5700
 IR Inten    --     14.6339                 0.8522                 0.2007

                     64                     65                     66
                      A                      A                      A
 Frequencies --   3208.5065              3215.5635              3223.5783
 Red. masses --      1.0919                 1.0954                 1.0990
 Frc consts  --      6.6227                 6.6734                 6.7284
 IR Inten    --     12.5662                34.8108                16.0668

                     67                     68                     69
                      A                      A                      A
 Frequencies --   3237.3164              3531.1042              3616.2444
 Red. masses --      1.0907                 1.0503                 1.0967
 Frc consts  --      6.7349                 7.7157                 8.4500
 IR Inten    --      4.4538                24.8369                43.7667

 - Thermochemistry -
 -------------------
 Temperature   298.150 Kelvin.  Pressure   1.00000 Atm.
 Atom     1 has atomic number  6 and mass  12.00000

 Molecular mass:   231.02177 amu.
 Principal axes and moments of inertia in atomic units:
                           1         2         3
     Eigenvalues --  1645.959606508.919776928.92092
           X            0.99966  -0.02322   0.01187
           Y            0.02360   0.99917  -0.03333
           Z           -0.01108   0.03359   0.99937
 This molecule is an asymmetric top.
 Rotational symmetry number  1.
 Warning -- assumption of classical behavior for rotation
           may cause significant error
 Rotational temperatures (Kelvin)      0.05262     0.01331     0.01250
 Rotational constants (GHZ):           1.09647     0.27727     0.26046
    1 imaginary frequencies ignored.
 Zero-point vibrational energy     506916.1 (Joules/Mol)
                                  121.15586 (Kcal/Mol)
 Warning -- explicit consideration of  19 degrees of freedom as
           vibrations may cause significant error
 Vibrational temperatures:     44.72    55.57    73.15   109.76   120.46
          (Kelvin)            157.74   234.81   268.63   274.43   297.97
                              315.19   355.20   457.79   535.93   600.44
                              611.72   684.22   812.02   861.78   910.80
                              916.84   992.30  1044.28  1086.73  1145.20
                             1181.54  1266.25  1345.83  1387.69  1437.94
                             1456.45  1457.97  1476.21  1484.94  1525.44
                             1540.51  1599.18  1603.28  1667.23  1704.69
                             1734.83  1740.15  1790.59  1898.11  1927.22
                             1935.50  1961.27  2030.65  2109.98  2143.11
                             2145.53  2169.89  2219.40  2363.45  2369.02
                             2389.21  2410.18  4405.12  4513.87  4550.88
                             4597.20  4606.00  4616.33  4626.48  4638.01
                             4657.78  5080.47  5202.97

 Zero-point correction=                           0.193074 (Hartree/Particle)
 Thermal correction to Energy=                    0.207321
 Thermal correction to Enthalpy=                  0.208265
 Thermal correction to Gibbs Free Energy=         0.149365
 Sum of electronic and zero-point Energies=          -1437.865032
 Sum of electronic and thermal Energies=             -1437.850784
 Sum of electronic and thermal Enthalpies=           -1437.849840
 Sum of electronic and thermal Free Energies=        -1437.908740

                     E (Thermal)             CV                S
                      KCal/Mol        Cal/Mol-Kelvin    Cal/Mol-Kelvin
 Total                  130.096             50.338            123.966
 Electronic               0.000              0.000              0.000
 Translational            0.889              2.981             42.214
 Rotational               0.889              2.981             32.673
 Vibrational            128.319             44.376             49.078
 Vibration     1          0.594              1.983              5.759
 Vibration     2          0.594              1.981              5.329
 Vibration     3          0.595              1.977              4.784
 Vibration     4          0.599              1.965              3.984
 Vibration     5          0.601              1.960              3.802
 Vibration     6          0.606              1.941              3.275
 Vibration     7          0.623              1.888              2.512
 Vibration     8          0.632              1.858              2.260
 Vibration     9          0.634              1.853              2.221
 Vibration    10          0.641              1.830              2.069
 Vibration    11          0.647              1.812              1.967
 Vibration    12          0.661              1.768              1.753
 Vibration    13          0.705              1.639              1.319
 Vibration    14          0.744              1.529              1.070
 Vibration    15          0.780              1.433              0.901
 Vibration    16          0.787              1.415              0.875
 Vibration    17          0.832              1.304              0.722
 Vibration    18          0.920              1.108              0.515
 Vibration    19          0.957              1.034              0.451

 Optimization completed.
    -- Stationary point found.
 Normal termination of Gaussian 16 at Thu Feb 25 16:29:14 2021.
