 Gaussian 16, Revision A.03,
 Gaussian 16:  ES64L-G16RevA.03 25-Dec-2016

 ----------------------------------------------------------------------
 # wB97XD def2tzvp, opt=(ts, noeigen, calcfc, maxcycles=70, maxstep=3),
  freq=noraman, scrf=(iefpcm, solvent=water)
 ----------------------------------------------------------------------

 ------------------------
 0_iteration/TS-805-0.out
 ------------------------
 Symbolic Z-matrix:
 Charge =  0 Multiplicity = 1

 SCF Done:  E(RwB97XD) =  -1304.18432681     A.U. after   15 cycles
 SCF Done:  E(RwB97XD) =  -1304.18432682     A.U. after    7 cycles
 Optimization completed.
    -- Stationary point found.
 Normal termination of Gaussian 16 at Tue Apr 13 02:15:10 2021.

 ---------------------------------------------------------------------
 #N Geom=AllCheck Guess=TCheck SCRF=Check GenChk RwB97XD/def2TZVP Freq
 ---------------------------------------------------------------------

 Structure from the checkpoint file:  "/beegfs/scratch/user/q/tla25/Gau-140967.chk"
 ------------------------
 0_iteration/TS-805-0.out
 ------------------------
 Charge =  0 Multiplicity = 1

                         Standard orientation:
 ---------------------------------------------------------------------
 Center     Atomic      Atomic             Coordinates (Angstroms)
 Number     Number       Type             X           Y           Z
 ---------------------------------------------------------------------
      1          6           0        0.551193    0.310000    0.018067
      2          6           0        0.306709    1.727730    0.143381
      3          8           0       -0.677185    2.204236    0.747654
      4          6           0       -0.520543   -0.545758    0.357701
      5          6           0       -1.686432   -1.184389    2.988755
      6          1           0       -1.679289   -0.864071    4.031247
      7          1           0       -2.696216   -1.102982    2.595512
      8          1           0       -1.367882   -2.222563    2.930678
      9          7           0       -0.775473   -0.363972    2.188315
     10          1           0       -0.975380    0.635761    2.219503
     11          1           0        0.183689   -0.482729    2.494485
     12         17           0       -0.119786   -2.289131    0.317348
     13          6           0       -1.895324   -0.330092   -0.246942
     14          6           0       -2.948388    0.338616    0.362251
     15          6           0       -4.157802    0.509279   -0.298971
     16          6           0       -4.332876    0.022467   -1.582766
     17          6           0       -3.281103   -0.633259   -2.208190
     18          6           0       -2.078603   -0.805083   -1.546128
     19          1           0       -2.841336    0.770536    1.344251
     20          1           0       -4.962253    1.036322    0.198138
     21          1           0       -5.276367    0.158023   -2.095854
     22          1           0       -3.394920   -1.011286   -3.216226
     23          1           0       -1.264337   -1.313514   -2.046570
     24          6           0        1.940014   -0.173797   -0.203588
     25          6           0        2.946579    0.069653    0.734626
     26          6           0        4.250129   -0.354267    0.521994
     27          6           0        4.578148   -1.039388   -0.639511
     28          6           0        3.594467   -1.286078   -1.587173
     29          6           0        2.295523   -0.849987   -1.372522
     30          1           0        2.698238    0.603591    1.644985
     31          1           0        5.009977   -0.154228    1.267558
     32          1           0        5.594019   -1.374716   -0.807069
     33          1           0        3.841458   -1.812448   -2.501057
     34          1           0        1.534829   -1.035011   -2.121520
     35          7           0        1.218291    2.575228   -0.409120
     36          6           0        1.175112    3.999440   -0.188860
     37          1           0        2.014661    2.184100   -0.877294
     38          1           0        2.056671    4.448006   -0.642768
     39          1           0        0.287553    4.449635   -0.638451
     40          1           0        1.170176    4.239604    0.877203
 ---------------------------------------------------------------------

 SCF Done:  E(RwB97XD) =  -1304.18432682     A.U. after    1 cycles

 The electronic state is 1-A.
 Alpha  occ. eigenvalues -- -101.69777 -19.19492 -14.49077 -14.43873 -10.40773
 Alpha  occ. eigenvalues --  -10.36837 -10.31885 -10.31121 -10.30390 -10.29690
 Alpha  occ. eigenvalues --  -10.29439 -10.29292 -10.29108 -10.29071 -10.29021
 Alpha  occ. eigenvalues --  -10.28689 -10.28651 -10.28595 -10.28442 -10.28342
 Alpha  occ. eigenvalues --  -10.25611  -9.58387  -7.33020  -7.32178  -7.32132
 Alpha  occ. eigenvalues --   -1.11966  -1.04944  -1.00594  -0.98621  -0.96412
 Alpha  occ. eigenvalues --   -0.95379  -0.88298  -0.86511  -0.85371  -0.84629
 Alpha  occ. eigenvalues --   -0.82313  -0.80202  -0.78188  -0.73221  -0.70899
 Alpha  occ. eigenvalues --   -0.69930  -0.68943  -0.67657  -0.65011  -0.64357
 Alpha  occ. eigenvalues --   -0.61549  -0.60905  -0.58836  -0.56716  -0.56691
 Alpha  occ. eigenvalues --   -0.55701  -0.54599  -0.54339  -0.53165  -0.52982
 Alpha  occ. eigenvalues --   -0.52240  -0.51785  -0.51049  -0.50820  -0.50403
 Alpha  occ. eigenvalues --   -0.48570  -0.48124  -0.46857  -0.46725  -0.46209
 Alpha  occ. eigenvalues --   -0.45873  -0.45215  -0.44000  -0.42944  -0.42656
 Alpha  occ. eigenvalues --   -0.42260  -0.39969  -0.39357  -0.34930  -0.34388
 Alpha  occ. eigenvalues --   -0.33724  -0.33424  -0.32560  -0.31814  -0.25789
 Alpha virt. eigenvalues --    0.03857   0.04854   0.05448   0.05519   0.06583
 Alpha virt. eigenvalues --    0.10245   0.10396   0.12568   0.13077   0.13448
 Alpha virt. eigenvalues --    0.14431   0.14950   0.15360   0.16033   0.16445

 Mulliken charges:
               1
     1  C   -0.306681
     2  C    0.367699
     3  O   -0.586912
     4  C    0.248757
     5  C   -0.274604
     6  H    0.155843
     7  H    0.158437
     8  H    0.150218
     9  N   -0.297851
    10  H    0.279399
    11  H    0.283333
    12  Cl  -0.111183
    13  C    0.254109
    14  C   -0.281955
    15  C   -0.139280
    16  C   -0.158347
    17  C   -0.137619
    18  C   -0.312246
    19  H    0.162712
    20  H    0.142889
    21  H    0.143940
    22  H    0.142918
    23  H    0.152840
    24  C    0.103104
    25  C   -0.251186
    26  C   -0.145988
    27  C   -0.136223
    28  C   -0.156324
    29  C   -0.222831
    30  H    0.139071
    31  H    0.138397
    32  H    0.141800
    33  H    0.137236
    34  H    0.148950
    35  N   -0.318427
    36  C   -0.251946
    37  H    0.258048
    38  H    0.137417
    39  H    0.122084
    40  H    0.120402
 Sum of Mulliken charges =  -0.00000

 Dipole moment (field-independent basis, Debye):
    X=              0.5346    Y=             -1.4078    Z=              3.3359  Tot=              3.6600
 Quadrupole moment (field-independent basis, Debye-Ang):
   XX=           -116.7966   YY=           -137.1050   ZZ=           -109.8748
   XY=              6.0058   XZ=             -2.7576   YZ=             -1.6113

  Exact polarizability: 374.991 -16.030 288.459  -8.835  19.202 310.983
 Approx polarizability: 286.696 -17.225 235.269  -5.837  22.002 264.681

 ******    1 imaginary frequencies (negative Signs) ******

                      1                      2                      3
                      A                      A                      A
 Frequencies --   -356.9872                28.4535                38.9961
 Red. masses --      6.3368                 4.6644                 4.3019
 Frc consts  --      0.4758                 0.0022                 0.0039
 IR Inten    --    862.4281                 1.3154                 9.9117

                      4                      5                      6
                      A                      A                      A
 Frequencies --     43.0166                48.4352                65.1699
 Red. masses --      3.0594                 4.0181                 3.9990
 Frc consts  --      0.0033                 0.0056                 0.0100
 IR Inten    --      4.6882                 2.9320                 5.8064

                      7                      8                      9
                      A                      A                      A
 Frequencies --     84.1564                97.3622               104.3417
 Red. masses --      2.6704                 3.1617                 3.6169
 Frc consts  --      0.0111                 0.0177                 0.0232
 IR Inten    --      2.1188                17.3233                16.1456

                     10                     11                     12
                      A                      A                      A
 Frequencies --    126.4516               128.3503               141.6543
 Red. masses --      1.1155                 2.1650                 2.5240
 Frc consts  --      0.0105                 0.0210                 0.0298
 IR Inten    --      7.6631                 5.6688                 0.9122

                     13                     14                     15
                      A                      A                      A
 Frequencies --    167.3158               181.1799               217.4570
 Red. masses --      4.9500                 3.9226                 4.7989
 Frc consts  --      0.0816                 0.0759                 0.1337
 IR Inten    --     10.9068                 5.3116                 4.6171

                     16                     17                     18
                      A                      A                      A
 Frequencies --    240.6860               253.0900               275.6177
 Red. masses --      5.8747                 4.7450                 5.2828
 Frc consts  --      0.2005                 0.1791                 0.2364
 IR Inten    --      1.5919                 1.2046                 1.4607

                     19                     20                     21
                      A                      A                      A
 Frequencies --    292.7572               303.2262               327.0239
 Red. masses --      3.1040                 3.7487                 3.8567
 Frc consts  --      0.1567                 0.2031                 0.2430
 IR Inten    --     10.5865                46.5203                40.3092

                     22                     23                     24
                      A                      A                      A
 Frequencies --    366.1372               382.5631               398.3815
 Red. masses --      4.6927                 1.4405                 6.6455
 Frc consts  --      0.3706                 0.1242                 0.6214
 IR Inten    --     60.3435                65.3699                30.9722

                     25                     26                     27
                      A                      A                      A
 Frequencies --    425.9703               426.6536               458.2843
 Red. masses --      2.9026                 2.8968                 3.7496
 Frc consts  --      0.3103                 0.3107                 0.4640
 IR Inten    --      1.4434                 0.1012                33.8623

                     28                     29                     30
                      A                      A                      A
 Frequencies --    508.4248               528.3863               579.2632
 Red. masses --      4.1883                 3.6288                 4.8548
 Frc consts  --      0.6379                 0.5969                 0.9598
 IR Inten    --     12.2651                80.3264               173.5522

                     31                     32                     33
                      A                      A                      A
 Frequencies --    625.4087               638.2978               641.0326
 Red. masses --      4.7154                 6.3450                 5.6990
 Frc consts  --      1.0867                 1.5231                 1.3798
 IR Inten    --     17.9430                 9.1227                 3.1745

                     34                     35                     36
                      A                      A                      A
 Frequencies --    690.3837               705.0115               727.3530
 Red. masses --      5.7452                 3.2143                 1.5684
 Frc consts  --      1.6134                 0.9413                 0.4889
 IR Inten    --     45.7308                52.7529               119.6072

                     37                     38                     39
                      A                      A                      A
 Frequencies --    727.5165               737.7469               785.1203
 Red. masses --      1.5577                 1.8227                 2.1931
 Frc consts  --      0.4858                 0.5845                 0.7965
 IR Inten    --     75.6118                36.2074                43.3417

                     40                     41                     42
                      A                      A                      A
 Frequencies --    791.4376               804.4957               857.8263
 Red. masses --      7.6788                 2.4619                 3.8151
 Frc consts  --      2.8339                 0.9388                 1.6541
 IR Inten    --     93.4672                 6.9616                10.0700

                     43                     44                     45
                      A                      A                      A
 Frequencies --    873.4229               878.6347               898.0103
 Red. masses --      1.2494                 1.2504                 3.2173
 Frc consts  --      0.5616                 0.5687                 1.5286
 IR Inten    --      1.3444                 1.1008               108.1333

                     46                     47                     48
                      A                      A                      A
 Frequencies --    956.9917               963.1819              1010.8920
 Red. masses --      1.4887                 1.4585                 1.4392
 Frc consts  --      0.8033                 0.7972                 0.8665
 IR Inten    --      4.8188                 0.4505                 1.0016

                     49                     50                     51
                      A                      A                      A
 Frequencies --   1013.3564              1016.1944              1025.4139
 Red. masses --      1.3780                 2.5019                 1.5551
 Frc consts  --      0.8338                 1.5222                 0.9634
 IR Inten    --      0.5070                11.0389                 0.1063

                     52                     53                     54
                      A                      A                      A
 Frequencies --   1025.7714              1026.6036              1029.4126
 Red. masses --      3.5616                 5.0587                 1.3556
 Frc consts  --      2.2080                 3.1412                 0.8464
 IR Inten    --      2.0711                 0.6460                 0.8246

                     55                     56                     57
                      A                      A                      A
 Frequencies --   1040.3803              1061.3370              1064.2380
 Red. masses --      2.1624                 1.8429                 2.0190
 Frc consts  --      1.3790                 1.2231                 1.3473
 IR Inten    --     21.6895                11.2333                31.3997

                     58                     59                     60
                      A                      A                      A
 Frequencies --   1073.1302              1094.8030              1107.8778
 Red. masses --      1.7315                 1.8355                 1.5631
 Frc consts  --      1.1749                 1.2962                 1.1304
 IR Inten    --     19.4209               206.8222                16.8745

                     61                     62                     63
                      A                      A                      A
 Frequencies --   1123.9597              1131.5200              1156.9733
 Red. masses --      2.8286                 1.6347                 1.2919
 Frc consts  --      2.1053                 1.2332                 1.0189
 IR Inten    --     85.9410                26.0989                 3.1988

                     64                     65                     66
                      A                      A                      A
 Frequencies --   1180.9615              1185.9189              1186.9397
 Red. masses --      1.1330                 1.2115                 1.6052
 Frc consts  --      0.9310                 1.0039                 1.3324
 IR Inten    --      0.1405                 1.8850                12.9775

                     67                     68                     69
                      A                      A                      A
 Frequencies --   1206.8121              1218.1918              1228.3389
 Red. masses --      1.1243                 3.4011                 1.1753
 Frc consts  --      0.9648                 2.9738                 1.0448
 IR Inten    --      0.1389                66.0535                17.5525

                     70                     71                     72
                      A                      A                      A
 Frequencies --   1239.0085              1276.5577              1302.3607
 Red. masses --      1.4467                 2.6470                 4.1528
 Frc consts  --      1.3085                 2.5415                 4.1501
 IR Inten    --     59.0726                24.9967                75.5891

                     73                     74                     75
                      A                      A                      A
 Frequencies --   1322.2745              1330.0928              1345.5351
 Red. masses --      4.2320                 3.7436                 1.3664
 Frc consts  --      4.3595                 3.9022                 1.4575
 IR Inten    --    379.4561               261.7577                58.8492

                     76                     77                     78
                      A                      A                      A
 Frequencies --   1356.7686              1373.9569              1407.9820
 Red. masses --      1.4428                 1.3590                 5.3147
 Frc consts  --      1.5648                 1.5115                 6.2076
 IR Inten    --      5.9127                 9.3141               311.1028

                     79                     80                     81
                      A                      A                      A
 Frequencies --   1455.7071              1456.9086              1475.3758
 Red. masses --      1.2161                 1.2245                 1.0449
 Frc consts  --      1.5183                 1.5313                 1.3401
 IR Inten    --      5.0837                38.5914                12.4584

                     82                     83                     84
                      A                      A                      A
 Frequencies --   1485.3096              1488.9195              1495.0542
 Red. masses --      2.2025                 2.1691                 1.0465
 Frc consts  --      2.8628                 2.8332                 1.3782
 IR Inten    --      5.9471                22.0119                13.9323

                     85                     86                     87
                      A                      A                      A
 Frequencies --   1496.8799              1509.4793              1541.2715
 Red. masses --      1.0383                 1.0956                 2.3790
 Frc consts  --      1.3707                 1.4708                 3.3297
 IR Inten    --     20.8480                15.2089                89.1721

                     88                     89                     90
                      A                      A                      A
 Frequencies --   1546.7642              1548.6422              1622.4466
 Red. masses --      2.2266                 2.0060                 5.8121
 Frc consts  --      3.1386                 2.8346                 9.0141
 IR Inten    --     55.6999               585.5956               629.2600

                     91                     92                     93
                      A                      A                      A
 Frequencies --   1641.3582              1652.5418              1665.6640
 Red. masses --      5.6355                 3.4421                 1.4572
 Frc consts  --      8.9451                 5.5384                 2.3819
 IR Inten    --     14.5954                18.9668                53.9261

                     94                     95                     96
                      A                      A                      A
 Frequencies --   1669.0438              1676.2022              3041.7515
 Red. masses --      4.9448                 3.8684                 1.0362
 Frc consts  --      8.1159                 6.4037                 5.6484
 IR Inten    --      9.8839                 6.0501                97.8524

                     97                     98                     99
                      A                      A                      A
 Frequencies --   3074.7784              3095.2214              3152.4882
 Red. masses --      1.0369                 1.1042                 1.1007
 Frc consts  --      5.7760                 6.2327                 6.4450
 IR Inten    --     51.5381                52.8638                26.7126

                    100                    101                    102
                      A                      A                      A
 Frequencies --   3157.5148              3184.0996              3184.5843
 Red. masses --      1.1010                 1.1057                 1.0871
 Frc consts  --      6.4674                 6.6045                 6.4959
 IR Inten    --     11.5667                10.4025                11.3513

                    103                    104                    105
                      A                      A                      A
 Frequencies --   3189.9085              3196.5279              3199.6596
 Red. masses --      1.0871                 1.0859                 1.0910
 Frc consts  --      6.5173                 6.5371                 6.5812
 IR Inten    --      2.0075                 0.6637                13.7704

                    106                    107                    108
                      A                      A                      A
 Frequencies --   3204.1926              3206.9862              3213.1837
 Red. masses --      1.0892                 1.0949                 1.0936
 Frc consts  --      6.5884                 6.6350                 6.6522
 IR Inten    --      5.7033                51.1762                28.1408

                    109                    110                    111
                      A                      A                      A
 Frequencies --   3218.1796              3222.7600              3261.2788
 Red. masses --      1.0988                 1.0982                 1.0913
 Frc consts  --      6.7047                 6.7204                 6.8389
 IR Inten    --     22.1935                22.0549                10.3711

                    112                    113                    114
                      A                      A                      A
 Frequencies --   3454.0474              3572.3001              3684.1763
 Red. masses --      1.0611                 1.0879                 1.0779
 Frc consts  --      7.4585                 8.1795                 8.6202
 IR Inten    --     84.7839                58.4564                74.2481

 - Thermochemistry -
 -------------------
 Temperature   298.150 Kelvin.  Pressure   1.00000 Atm.
 Atom     1 has atomic number  6 and mass  12.00000

 Molecular mass:   302.11859 amu.
 Principal axes and moments of inertia in atomic units:
                           1         2         3
     Eigenvalues --  4321.124588333.021979354.49549
           X            0.99996   0.00689  -0.00600
           Y           -0.00689   0.99998  -0.00088
           Z            0.00599   0.00092   0.99998
 This molecule is an asymmetric top.
 Rotational symmetry number  1.
 Warning -- assumption of classical behavior for rotation
           may cause significant error
 Rotational temperatures (Kelvin)      0.02004     0.01039     0.00926
 Rotational constants (GHZ):           0.41766     0.21658     0.19293
    1 imaginary frequencies ignored.
 Zero-point vibrational energy     865171.9 (Joules/Mol)
                                  206.78105 (Kcal/Mol)
 Warning -- explicit consideration of  29 degrees of freedom as
           vibrations may cause significant error
 Vibrational temperatures:     40.94    56.11    61.89    69.69    93.76
          (Kelvin)            121.08   140.08   150.12   181.94   184.67
                              203.81   240.73   260.68   312.87   346.29
                              364.14   396.55   421.21   436.27   470.51
                              526.79   550.42   573.18   612.88   613.86
                              659.37   731.51   760.23   833.43   899.82
                              918.37   922.30   993.31  1014.35  1046.50
                             1046.73  1061.45  1129.61  1138.70  1157.49
                             1234.22  1256.66  1264.16  1292.04  1376.90
                             1385.80  1454.45  1457.99  1462.08  1475.34
                             1475.86  1477.05  1481.10  1496.88  1527.03
                             1531.20  1544.00  1575.18  1593.99  1617.13
                             1628.00  1664.63  1699.14  1706.27  1707.74
                             1736.33  1752.71  1767.31  1782.66  1836.68
                             1873.81  1902.46  1913.71  1935.92  1952.09
                             1976.82  2025.77  2094.44  2096.17  2122.74
                             2137.03  2142.22  2151.05  2153.68  2171.80
                             2217.55  2225.45  2228.15  2334.34  2361.55
                             2377.64  2396.52  2401.38  2411.68  4376.40
                             4423.92  4453.33  4535.73  4542.96  4581.21
                             4581.91  4589.57  4599.09  4603.60  4610.12
                             4614.14  4623.05  4630.24  4636.83  4692.25
                             4969.60  5139.74  5300.71

 Zero-point correction=                           0.329527 (Hartree/Particle)
 Thermal correction to Energy=                    0.349900
 Thermal correction to Enthalpy=                  0.350844
 Thermal correction to Gibbs Free Energy=         0.278943
 Sum of electronic and zero-point Energies=          -1303.854800
 Sum of electronic and thermal Energies=             -1303.834427
 Sum of electronic and thermal Enthalpies=           -1303.833483
 Sum of electronic and thermal Free Energies=        -1303.905383

                     E (Thermal)             CV                S
                      KCal/Mol        Cal/Mol-Kelvin    Cal/Mol-Kelvin
 Total                  219.566             75.872            151.328
 Electronic               0.000              0.000              0.000
 Translational            0.889              2.981             43.014
 Rotational               0.889              2.981             34.176
 Vibrational            217.788             69.910             74.138
 Vibration     1          0.593              1.984              5.934
 Vibration     2          0.594              1.981              5.309
 Vibration     3          0.595              1.980              5.115
 Vibration     4          0.595              1.978              4.880
 Vibration     5          0.597              1.971              4.294
 Vibration     6          0.601              1.960              3.792
 Vibration     7          0.603              1.951              3.506
 Vibration     8          0.605              1.946              3.372
 Vibration     9          0.611              1.927              2.999
 Vibration    10          0.611              1.925              2.971
 Vibration    11          0.615              1.912              2.781
 Vibration    12          0.624              1.883              2.465
 Vibration    13          0.630              1.865              2.316
 Vibration    14          0.646              1.814              1.980
 Vibration    15          0.658              1.778              1.798
 Vibration    16          0.664              1.758              1.709
 Vibration    17          0.677              1.718              1.561
 Vibration    18          0.688              1.687              1.458
 Vibration    19          0.695              1.668              1.399
 Vibration    20          0.711              1.621              1.275
 Vibration    21          0.739              1.542              1.096
 Vibration    22          0.752              1.507              1.029
 Vibration    23          0.765              1.474              0.969
 Vibration    24          0.788              1.414              0.872
 Vibration    25          0.788              1.412              0.870
 Vibration    26          0.816              1.343              0.771
 Vibration    27          0.864              1.231              0.637
 Vibration    28          0.883              1.187              0.591
 Vibration    29          0.936              1.076              0.487

 Optimization completed.
    -- Stationary point found.
 Normal termination of Gaussian 16 at Tue Apr 13 03:30:19 2021.
