 Gaussian 16, Revision A.03,
 Gaussian 16:  ES64L-G16RevA.03 25-Dec-2016

 ----------------------------------------------------------------------
 # wB97XD def2tzvp, opt=(ts, noeigen, calcfc, maxcycles=70, maxstep=1),
  freq=noraman, scrf=(iefpcm, solvent=water)
 ----------------------------------------------------------------------

 ------------------------
 0_iteration/TS-864-0.out
 ------------------------
 Symbolic Z-matrix:
 Charge =  0 Multiplicity = 1

 SCF Done:  E(RwB97XD) =  -1017.76915976     A.U. after   15 cycles
 SCF Done:  E(RwB97XD) =  -1017.76909683     A.U. after   10 cycles
 SCF Done:  E(RwB97XD) =  -1017.76903938     A.U. after   10 cycles
 SCF Done:  E(RwB97XD) =  -1017.76898718     A.U. after   10 cycles
 SCF Done:  E(RwB97XD) =  -1017.76893904     A.U. after   10 cycles
 SCF Done:  E(RwB97XD) =  -1017.76889484     A.U. after   10 cycles
 SCF Done:  E(RwB97XD) =  -1017.76885538     A.U. after   10 cycles
 SCF Done:  E(RwB97XD) =  -1017.76882059     A.U. after   10 cycles
 SCF Done:  E(RwB97XD) =  -1017.76879047     A.U. after   10 cycles
 SCF Done:  E(RwB97XD) =  -1017.76876496     A.U. after   10 cycles
 SCF Done:  E(RwB97XD) =  -1017.76870762     A.U. after   10 cycles
 SCF Done:  E(RwB97XD) =  -1017.76870271     A.U. after   11 cycles
 SCF Done:  E(RwB97XD) =  -1017.76870677     A.U. after   10 cycles
 SCF Done:  E(RwB97XD) =  -1017.76870752     A.U. after   10 cycles
 SCF Done:  E(RwB97XD) =  -1017.76870805     A.U. after    8 cycles
 SCF Done:  E(RwB97XD) =  -1017.76870877     A.U. after    8 cycles
 SCF Done:  E(RwB97XD) =  -1017.76870854     A.U. after    8 cycles
 SCF Done:  E(RwB97XD) =  -1017.76870595     A.U. after   10 cycles
 SCF Done:  E(RwB97XD) =  -1017.76870850     A.U. after   10 cycles
 Optimization completed.
    -- Stationary point found.
 Normal termination of Gaussian 16 at Wed Feb 24 12:44:15 2021.

 ---------------------------------------------------------------------
 #N Geom=AllCheck Guess=TCheck SCRF=Check GenChk RwB97XD/def2TZVP Freq
 ---------------------------------------------------------------------

 Structure from the checkpoint file:  "/beegfs/scratch/user/q/tla25/Gau-26753.chk"
 ------------------------
 0_iteration/TS-864-0.out
 ------------------------
 Charge =  0 Multiplicity = 1

                         Standard orientation:
 ---------------------------------------------------------------------
 Center     Atomic      Atomic             Coordinates (Angstroms)
 Number     Number       Type             X           Y           Z
 ---------------------------------------------------------------------
      1          6           0       -1.094280    1.150644   -0.066213
      2          6           0        0.237366    1.601274   -0.298736
      3          8           0        0.521741    2.727361   -0.732851
      4          6           0       -1.288641   -0.166857    0.327436
      5          6           0       -1.410088   -2.764146   -0.935665
      6          1           0       -1.443303   -3.351205   -1.853916
      7          1           0       -0.473802   -2.968400   -0.417482
      8          1           0       -2.240700   -3.055098   -0.295957
      9          7           0       -1.497360   -1.331286   -1.207946
     10          1           0       -0.741503   -1.017051   -1.805893
     11          1           0       -2.372712   -1.081488   -1.653977
     12         17           0       -2.775429   -0.583731    1.180217
     13          1           0       -0.461449   -0.741929    0.716007
     14          6           0       -2.252021    2.056747   -0.379151
     15          1           0       -1.879515    2.976905   -0.825603
     16          1           0       -2.953189    1.599189   -1.083122
     17          1           0       -2.822169    2.321843    0.515274
     18          6           0        1.389410    0.665093   -0.021100
     19          6           0        1.819371    0.414081    1.277712
     20          6           0        2.907079   -0.416134    1.508637
     21          6           0        3.569750   -1.009005    0.443259
     22          6           0        3.145841   -0.761320   -0.855129
     23          6           0        2.064966    0.076876   -1.085741
     24          1           0        1.296153    0.866981    2.111670
     25          1           0        3.235402   -0.602547    2.523508
     26          1           0        4.414373   -1.661639    0.624020
     27          1           0        3.658509   -1.221312   -1.690619
     28          1           0        1.741274    0.275782   -2.101035
 ---------------------------------------------------------------------

 SCF Done:  E(RwB97XD) =  -1017.76870850     A.U. after    1 cycles

 The electronic state is 1-A.
 Alpha  occ. eigenvalues -- -101.70270 -19.20650 -14.48636 -10.38981 -10.35392
 Alpha  occ. eigenvalues --  -10.31994 -10.29817 -10.29322 -10.29290 -10.29243
 Alpha  occ. eigenvalues --  -10.29225 -10.29074 -10.26853 -10.26730  -9.58856
 Alpha  occ. eigenvalues --   -7.33484  -7.32657  -7.32602  -1.11241  -1.04295
 Alpha  occ. eigenvalues --   -0.97566  -0.96720  -0.88818  -0.85654  -0.85341
 Alpha  occ. eigenvalues --   -0.79478  -0.78201  -0.73158  -0.70669  -0.68808
 Alpha  occ. eigenvalues --   -0.63848  -0.63074  -0.60828  -0.57289  -0.56291
 Alpha  occ. eigenvalues --   -0.55482  -0.54308  -0.54082  -0.52985  -0.51203
 Alpha  occ. eigenvalues --   -0.49893  -0.49415  -0.48358  -0.47277  -0.46500
 Alpha  occ. eigenvalues --   -0.45920  -0.45167  -0.44715  -0.43898  -0.42529
 Alpha  occ. eigenvalues --   -0.40141  -0.39104  -0.34352  -0.33969  -0.31749
 Alpha  occ. eigenvalues --   -0.27642
 Alpha virt. eigenvalues --    0.03604   0.04887   0.05324   0.09450   0.10218
 Alpha virt. eigenvalues --    0.12845   0.13114   0.14014   0.15002   0.15740
 Alpha virt. eigenvalues --    0.16600   0.17036   0.18202   0.18950   0.19330

 Mulliken charges:
               1
     1  C   -0.147688
     2  C    0.242406
     3  O   -0.516836
     4  C   -0.061429
     5  C   -0.273564
     6  H    0.155497
     7  H    0.151872
     8  H    0.149697
     9  N   -0.320279
    10  H    0.271674
    11  H    0.285878
    12  Cl  -0.105724
    13  H    0.195397
    14  C   -0.406013
    15  H    0.130013
    16  H    0.121100
    17  H    0.126894
    18  C    0.170723
    19  C   -0.244492
    20  C   -0.119220
    21  C   -0.153766
    22  C   -0.135253
    23  C   -0.254745
    24  H    0.147706
    25  H    0.144926
    26  H    0.145666
    27  H    0.144437
    28  H    0.155124
 Sum of Mulliken charges =  -0.00000

 Dipole moment (field-independent basis, Debye):
    X=             -2.2268    Y=             -9.9996    Z=             -2.2606  Tot=             10.4910
 Quadrupole moment (field-independent basis, Debye-Ang):
   XX=            -86.3705   YY=           -101.9500   ZZ=            -81.9219
   XY=             -3.1624   XZ=              8.6001   YZ=             10.1371

  Exact polarizability: 231.638  -1.540 229.097  -6.455   0.548 199.169
 Approx polarizability: 178.560  -3.042 184.285  -6.087  -1.394 173.489

 ******    1 imaginary frequencies (negative Signs) ******

                      1                      2                      3
                      A                      A                      A
 Frequencies --   -376.9245                21.8566                27.0895
 Red. masses --      6.6043                 2.0614                 3.7953
 Frc consts  --      0.5528                 0.0006                 0.0016
 IR Inten    --   1051.0666                 1.0847                 2.9022

                      4                      5                      6
                      A                      A                      A
 Frequencies --     35.8665                68.0278                76.9951
 Red. masses --      3.8892                 5.1970                 1.5999
 Frc consts  --      0.0029                 0.0142                 0.0056
 IR Inten    --      4.1962                 2.7076                 2.1361

                      7                      8                      9
                      A                      A                      A
 Frequencies --     92.1076               134.0079               161.8443
 Red. masses --      1.9100                 3.1572                 1.5142
 Frc consts  --      0.0095                 0.0334                 0.0234
 IR Inten    --      1.8068                 3.2631                 2.7412

                     10                     11                     12
                      A                      A                      A
 Frequencies --    186.7709               198.2848               240.3439
 Red. masses --      3.7670                 2.8787                 4.9535
 Frc consts  --      0.0774                 0.0667                 0.1686
 IR Inten    --      8.9012                 5.4036                14.9404

                     13                     14                     15
                      A                      A                      A
 Frequencies --    261.0119               304.8224               335.8259
 Red. masses --      3.4313                 3.9791                 3.8522
 Frc consts  --      0.1377                 0.2178                 0.2560
 IR Inten    --      2.1690                 3.6938                 4.3023

                     16                     17                     18
                      A                      A                      A
 Frequencies --    359.7444               414.5572               417.9578
 Red. masses --      5.8199                 2.8998                 5.9539
 Frc consts  --      0.4438                 0.2936                 0.6128
 IR Inten    --     17.4000                 0.9664                 7.5626

                     19                     20                     21
                      A                      A                      A
 Frequencies --    490.1503               586.5023               633.8723
 Red. masses --      4.7417                 3.5968                 1.7017
 Frc consts  --      0.6712                 0.7290                 0.4029
 IR Inten    --    184.0641                 3.9756                31.2003

                     22                     23                     24
                      A                      A                      A
 Frequencies --    635.3990               663.4752               728.7505
 Red. masses --      4.3735                 4.4207                 1.5428
 Frc consts  --      1.0403                 1.1465                 0.4827
 IR Inten    --      8.0925                47.1285                88.8316

                     25                     26                     27
                      A                      A                      A
 Frequencies --    760.3689               775.7388               808.7596
 Red. masses --      3.8908                 4.6461                 2.8107
 Frc consts  --      1.3254                 1.6473                 1.0832
 IR Inten    --      0.4884                50.3428                 5.0210

                     28                     29                     30
                      A                      A                      A
 Frequencies --    817.6550               880.8714               930.7117
 Red. masses --      4.0163                 1.2462                 2.4513
 Frc consts  --      1.5820                 0.5697                 1.2510
 IR Inten    --    283.1916                 0.1588                28.7593

                     31                     32                     33
                      A                      A                      A
 Frequencies --    964.9459              1005.5793              1010.9523
 Red. masses --      1.6614                 1.0903                 1.3779
 Frc consts  --      0.9115                 0.6496                 0.8297
 IR Inten    --     85.3374                12.7716                 0.4713

                     34                     35                     36
                      A                      A                      A
 Frequencies --   1024.6971              1028.4753              1030.8468
 Red. masses --      5.1394                 1.7920                 1.4099
 Frc consts  --      3.1795                 1.1168                 0.8827
 IR Inten    --     24.0801               125.9449                23.1657

                     37                     38                     39
                      A                      A                      A
 Frequencies --   1036.1501              1061.7214              1063.8732
 Red. masses --      1.1579                 1.8873                 1.9645
 Frc consts  --      0.7324                 1.2535                 1.3100
 IR Inten    --    175.7912                50.6589                 2.6159

                     40                     41                     42
                      A                      A                      A
 Frequencies --   1076.5658              1109.7297              1148.4659
 Red. masses --      2.6772                 1.5524                 1.0908
 Frc consts  --      1.8281                 1.1264                 0.8477
 IR Inten    --    112.3172                12.9999                61.0041

                     43                     44                     45
                      A                      A                      A
 Frequencies --   1183.6715              1196.7311              1206.9548
 Red. masses --      1.1399                 2.3265                 1.1221
 Frc consts  --      0.9410                 1.9631                 0.9631
 IR Inten    --      0.0375                 1.5909                 0.2810

                     46                     47                     48
                      A                      A                      A
 Frequencies --   1223.1399              1278.5552              1317.8724
 Red. masses --      1.4105                 1.5710                 4.4038
 Frc consts  --      1.2433                 1.5131                 4.5063
 IR Inten    --     25.6725                43.5992                 2.9662

                     49                     50                     51
                      A                      A                      A
 Frequencies --   1343.0930              1359.1945              1397.5089
 Red. masses --      1.3199                 1.4489                 1.4988
 Frc consts  --      1.4028                 1.5771                 1.7247
 IR Inten    --      0.5611                 0.8030               164.5935

                     52                     53                     54
                      A                      A                      A
 Frequencies --   1416.0242              1453.6584              1464.5413
 Red. masses --      2.2680                 3.4274                 1.4023
 Frc consts  --      2.6794                 4.2671                 1.7721
 IR Inten    --    706.0251               244.6488                80.5168

                     55                     56                     57
                      A                      A                      A
 Frequencies --   1484.4702              1486.8766              1490.4555
 Red. masses --      1.0826                 2.1376                 1.0404
 Frc consts  --      1.4056                 2.7844                 1.3617
 IR Inten    --    100.5381                11.7693                16.5758

                     58                     59                     60
                      A                      A                      A
 Frequencies --   1496.2063              1506.0897              1540.7136
 Red. masses --      1.1519                 1.0357                 2.3611
 Frc consts  --      1.5193                 1.3841                 3.3022
 IR Inten    --    222.2423                 9.3519                 6.5888

                     61                     62                     63
                      A                      A                      A
 Frequencies --   1619.6374              1641.3610              1648.2507
 Red. masses --     10.5523                 1.0926                 5.7995
 Frc consts  --     16.3092                 1.7343                 9.2830
 IR Inten    --    877.0176                45.5935                14.6832

                     64                     65                     66
                      A                      A                      A
 Frequencies --   1674.1770              3034.9099              3067.8480
 Red. masses --      5.8666                 1.0402                 1.0337
 Frc consts  --      9.6882                 5.6449                 5.7323
 IR Inten    --      0.7806                74.1598                45.2851

                     67                     68                     69
                      A                      A                      A
 Frequencies --   3084.7824              3144.5558              3149.6847
 Red. masses --      1.1011                 1.1053                 1.0968
 Frc consts  --      6.1735                 6.4392                 6.4107
 IR Inten    --     41.6818                15.4493                10.8476

                     70                     71                     72
                      A                      A                      A
 Frequencies --   3167.8506              3188.1609              3191.9375
 Red. masses --      1.1051                 1.0876                 1.0878
 Frc consts  --      6.5341                 6.5132                 6.5301
 IR Inten    --     11.6533                 5.9119                 3.2399

                     73                     74                     75
                      A                      A                      A
 Frequencies --   3201.5569              3210.3667              3221.3321
 Red. masses --      1.0908                 1.0948                 1.0988
 Frc consts  --      6.5873                 6.6478                 6.7178
 IR Inten    --      6.5502                36.7469                18.5187

                     76                     77                     78
                      A                      A                      A
 Frequencies --   3227.8168              3520.8611              3605.8839
 Red. masses --      1.0921                 1.0507                 1.0967
 Frc consts  --      6.7038                 7.6739                 8.4014
 IR Inten    --      2.7532                19.1420                54.7365

 - Thermochemistry -
 -------------------
 Temperature   298.150 Kelvin.  Pressure   1.00000 Atm.
 Atom     1 has atomic number  6 and mass  12.00000

 Molecular mass:   211.07639 amu.
 Principal axes and moments of inertia in atomic units:
                           1         2         3
     Eigenvalues --  2224.997524249.358605084.53860
           X            0.99942  -0.02568   0.02248
           Y            0.02473   0.99884   0.04142
           Z           -0.02351  -0.04084   0.99889
 This molecule is an asymmetric top.
 Rotational symmetry number  1.
 Warning -- assumption of classical behavior for rotation
           may cause significant error
 Rotational temperatures (Kelvin)      0.03893     0.02038     0.01703
 Rotational constants (GHZ):           0.81112     0.42471     0.35495
    1 imaginary frequencies ignored.
 Zero-point vibrational energy     604461.7 (Joules/Mol)
                                  144.46981 (Kcal/Mol)
 Warning -- explicit consideration of  19 degrees of freedom as
           vibrations may cause significant error
 Vibrational temperatures:     31.45    38.98    51.60    97.88   110.78
          (Kelvin)            132.52   192.81   232.86   268.72   285.29
                              345.80   375.54   438.57   483.18   517.59
                              596.46   601.35   705.22   843.85   912.00
                              914.20   954.59  1048.51  1094.00  1116.12
                             1163.62  1176.42  1267.38  1339.09  1388.34
                             1446.80  1454.53  1474.31  1479.75  1483.16
                             1490.79  1527.58  1530.68  1548.94  1596.65
                             1652.39  1703.04  1721.83  1736.54  1759.83
                             1839.56  1896.12  1932.41  1955.58  2010.70
                             2037.34  2091.49  2107.15  2135.82  2139.28
                             2144.43  2152.71  2166.93  2216.74  2330.30
                             2361.55  2371.47  2408.77  4366.56  4413.95
                             4438.31  4524.31  4531.69  4557.83  4587.05
                             4592.49  4606.33  4619.00  4634.78  4644.11
                             5065.73  5188.06

 Zero-point correction=                           0.230227 (Hartree/Particle)
 Thermal correction to Energy=                    0.245064
 Thermal correction to Enthalpy=                  0.246008
 Thermal correction to Gibbs Free Energy=         0.185262
 Sum of electronic and zero-point Energies=          -1017.538481
 Sum of electronic and thermal Energies=             -1017.523644
 Sum of electronic and thermal Enthalpies=           -1017.522700
 Sum of electronic and thermal Free Energies=        -1017.583447

                     E (Thermal)             CV                S
                      KCal/Mol        Cal/Mol-Kelvin    Cal/Mol-Kelvin
 Total                  153.780             52.455            127.852
 Electronic               0.000              0.000              0.000
 Translational            0.889              2.981             41.945
 Rotational               0.889              2.981             32.242
 Vibrational            152.003             46.494             53.666
 Vibration     1          0.593              1.985              6.458
 Vibration     2          0.593              1.984              6.032
 Vibration     3          0.594              1.982              5.475
 Vibration     4          0.598              1.969              4.210
 Vibration     5          0.599              1.964              3.966
 Vibration     6          0.602              1.955              3.615
 Vibration     7          0.613              1.919              2.888
 Vibration     8          0.622              1.889              2.528
 Vibration     9          0.632              1.858              2.260
 Vibration    10          0.637              1.842              2.149
 Vibration    11          0.657              1.779              1.800
 Vibration    12          0.669              1.744              1.655
 Vibration    13          0.696              1.665              1.390
 Vibration    14          0.717              1.604              1.232
 Vibration    15          0.734              1.555              1.123
 Vibration    16          0.778              1.439              0.911
 Vibration    17          0.781              1.431              0.899
 Vibration    18          0.846              1.272              0.683
 Vibration    19          0.944              1.061              0.473

 Optimization completed.
    -- Stationary point found.
 Normal termination of Gaussian 16 at Wed Feb 24 13:32:02 2021.
