 Gaussian 16, Revision A.03,
 Gaussian 16:  ES64L-G16RevA.03 25-Dec-2016

 ----------------------------------------------------------------------
 # wB97XD def2tzvp, opt=(ts, noeigen, calcfc, maxcycles=70, maxstep=5),
  freq=noraman, scrf=(iefpcm, solvent=water)
 ----------------------------------------------------------------------

 ------------------------
 2_iteration/TS-830-2.out
 ------------------------
 Symbolic Z-matrix:
 Charge =  0 Multiplicity = 1

 SCF Done:  E(RwB97XD) =  -3686.04986578     A.U. after   15 cycles
 Optimization completed.
    -- Stationary point found.
 Normal termination of Gaussian 16 at Fri Feb 26 08:07:53 2021.

 ---------------------------------------------------------------------
 #N Geom=AllCheck Guess=TCheck SCRF=Check GenChk RwB97XD/def2TZVP Freq
 ---------------------------------------------------------------------

 Structure from the checkpoint file:  "/beegfs/scratch/user/q/tla25/Gau-63993.chk"
 ------------------------
 2_iteration/TS-830-2.out
 ------------------------
 Charge =  0 Multiplicity = 1

                         Standard orientation:
 ---------------------------------------------------------------------
 Center     Atomic      Atomic             Coordinates (Angstroms)
 Number     Number       Type             X           Y           Z
 ---------------------------------------------------------------------
      1          6           0        0.915730    0.304250   -0.093790
      2          6           0        0.493150    1.681320    0.206860
      3          8           0        1.032519    2.345910    1.096720
      4          6           0        0.136581   -0.833030   -0.180800
      5          6           0        0.647872   -1.465160    2.486850
      6          1           0       -0.351458   -1.465081    2.912450
      7          1           0        1.316242   -2.034640    3.130330
      8          1           0        1.011411   -0.439000    2.406710
      9          7           0        0.612852   -2.041100    1.145580
     10          1           0        1.534222   -2.351319    0.856700
     11          1           0       -0.019307   -2.830960    1.074270
     12         17           0        0.591482   -2.030450   -1.540930
     13          6           0       -1.351259   -0.729191    0.006090
     14          6           0       -2.261818   -1.346102   -0.846010
     15          6           0       -3.627229   -1.214933   -0.639280
     16          6           0       -4.106829   -0.469473    0.424420
     17          6           0       -3.208249    0.141288    1.287570
     18          6           0       -1.846539    0.008658    1.083990
     19          1           0       -1.909638   -1.923822   -1.686980
     20          1           0       -4.315738   -1.697893   -1.320560
     21          1           0       -5.172509   -0.366034    0.583390
     22          1           0       -3.566500    0.724337    2.126050
     23          1           0       -1.165460    0.498459    1.765100
     24         35           0        2.815141    0.076191   -0.090250
     25          7           0       -0.511291    2.217639   -0.536490
     26          6           0       -0.950960    1.743819   -1.829630
     27          6           0       -1.139832    3.441339   -0.088770
     28          1           0       -0.294080    0.957579   -2.189860
     29          1           0       -1.973080    1.358748   -1.783180
     30          1           0       -0.927521    2.573749   -2.540770
     31          1           0       -0.988382    3.562519    0.980070
     32          1           0       -0.728342    4.316009   -0.601900
     33          1           0       -2.209762    3.388528   -0.299640
 ---------------------------------------------------------------------

 SCF Done:  E(RwB97XD) =  -3686.04986578     A.U. after    1 cycles

 The electronic state is 1-A.
 Alpha  occ. eigenvalues -- -483.12328-101.68630 -62.67149 -56.46254 -56.45921
 Alpha  occ. eigenvalues --  -56.45911 -19.20399 -14.50409 -14.46029 -10.41243
 Alpha  occ. eigenvalues --  -10.38616 -10.32201 -10.31811 -10.30708 -10.30558
 Alpha  occ. eigenvalues --  -10.30453 -10.30017 -10.29792 -10.29683 -10.29552
 Alpha  occ. eigenvalues --  -10.29487  -9.57247  -8.81253  -7.31825  -7.31057
 Alpha  occ. eigenvalues --   -7.31028  -6.63364  -6.62297  -6.62267  -2.73761
 Alpha  occ. eigenvalues --   -2.73452  -2.73426  -2.72563  -2.72563  -1.13443
 Alpha  occ. eigenvalues --   -1.06099  -1.03322  -0.98533  -0.95398  -0.90362
 Alpha  occ. eigenvalues --   -0.87595  -0.85855  -0.82635  -0.81292  -0.79962
 Alpha  occ. eigenvalues --   -0.78772  -0.72274  -0.71066  -0.68216  -0.65275
 Alpha  occ. eigenvalues --   -0.62856  -0.61617  -0.58866  -0.58348  -0.56985
 Alpha  occ. eigenvalues --   -0.56676  -0.55790  -0.55486  -0.53371  -0.51901
 Alpha  occ. eigenvalues --   -0.51496  -0.50198  -0.49031  -0.48834  -0.48562
 Alpha  occ. eigenvalues --   -0.47853  -0.47535  -0.46263  -0.46010  -0.45387
 Alpha  occ. eigenvalues --   -0.43312  -0.42657  -0.40762  -0.39444  -0.38977
 Alpha  occ. eigenvalues --   -0.36630  -0.34765  -0.34335  -0.34271  -0.31552
 Alpha  occ. eigenvalues --   -0.27001
 Alpha virt. eigenvalues --    0.01147   0.04690   0.06016   0.07891   0.10340
 Alpha virt. eigenvalues --    0.10989   0.11867   0.13397   0.14004   0.14521
 Alpha virt. eigenvalues --    0.14669   0.16125   0.16448   0.17477   0.17803

 Mulliken charges:
               1
     1  C   -0.163806
     2  C    0.237916
     3  O   -0.508291
     4  C    0.097625
     5  C   -0.309496
     6  H    0.167788
     7  H    0.170934
     8  H    0.154823
     9  N   -0.270725
    10  H    0.289132
    11  H    0.298142
    12  Cl  -0.180128
    13  C    0.131784
    14  C   -0.216156
    15  C   -0.132209
    16  C   -0.134094
    17  C   -0.162523
    18  C   -0.279913
    19  H    0.140471
    20  H    0.145564
    21  H    0.147182
    22  H    0.146630
    23  H    0.192167
    24  Br  -0.155494
    25  N   -0.070248
    26  C   -0.320479
    27  C   -0.290623
    28  H    0.154280
    29  H    0.150978
    30  H    0.146693
    31  H    0.144279
    32  H    0.140412
    33  H    0.137383
 Sum of Mulliken charges =   0.00000

 Dipole moment (field-independent basis, Debye):
    X=             -6.8007    Y=             -5.7459    Z=              1.8881  Tot=              9.1011
 Quadrupole moment (field-independent basis, Debye-Ang):
   XX=           -117.5482   YY=           -115.6085   ZZ=           -115.1472
   XY=            -11.1578   XZ=              1.1437   YZ=            -15.0548

  Exact polarizability: 314.055   0.669 263.476   7.563  21.412 248.199
 Approx polarizability: 244.838   0.583 214.944   7.224  22.917 214.949

 ******    1 imaginary frequencies (negative Signs) ******

                      1                      2                      3
                      A                      A                      A
 Frequencies --   -358.5252                41.9085                55.0351
 Red. masses --      6.1754                 4.4413                 4.4754
 Frc consts  --      0.4677                 0.0046                 0.0080
 IR Inten    --    435.3303                 6.3255                 2.4276

                      4                      5                      6
                      A                      A                      A
 Frequencies --     69.8698                72.9363                88.8806
 Red. masses --      6.0713                 2.4495                 3.4463
 Frc consts  --      0.0175                 0.0077                 0.0160
 IR Inten    --      3.5603                 1.9620                 0.2632

                      7                      8                      9
                      A                      A                      A
 Frequencies --     96.8229               104.9410               121.9240
 Red. masses --      1.4237                 3.2813                 5.3800
 Frc consts  --      0.0079                 0.0213                 0.0471
 IR Inten    --      1.1892                 4.0178                 7.2985

                     10                     11                     12
                      A                      A                      A
 Frequencies --    160.5203               165.4723               184.5568
 Red. masses --      4.9295                 3.5553                 2.9777
 Frc consts  --      0.0748                 0.0574                 0.0598
 IR Inten    --      8.0564                 3.1029                 9.1224

                     13                     14                     15
                      A                      A                      A
 Frequencies --    198.9550               224.9225               231.3721
 Red. masses --      2.8541                 1.6138                 1.3862
 Frc consts  --      0.0666                 0.0481                 0.0437
 IR Inten    --      1.8883                 6.2313                 0.3347

                     16                     17                     18
                      A                      A                      A
 Frequencies --    261.5778               265.9202               277.1350
 Red. masses --      7.0714                 3.6184                 2.7268
 Frc consts  --      0.2851                 0.1508                 0.1234
 IR Inten    --      3.0585                 6.2979                 6.6243

                     19                     20                     21
                      A                      A                      A
 Frequencies --    301.9782               324.1589               333.7767
 Red. masses --      3.2319                 3.9435                 6.3923
 Frc consts  --      0.1736                 0.2441                 0.4196
 IR Inten    --      8.1935                57.7282                69.8959

                     22                     23                     24
                      A                      A                      A
 Frequencies --    346.9257               382.4210               430.6296
 Red. masses --      4.9833                 3.6639                 2.9368
 Frc consts  --      0.3534                 0.3157                 0.3209
 IR Inten    --     17.6544                15.5241                 1.5150

                     25                     26                     27
                      A                      A                      A
 Frequencies --    451.8731               521.4912               583.7374
 Red. masses --      3.0447                 4.0905                 3.7879
 Frc consts  --      0.3663                 0.6554                 0.7605
 IR Inten    --     15.5969                 8.7058                51.7663

                     28                     29                     30
                      A                      A                      A
 Frequencies --    610.4227               632.5777               650.4519
 Red. masses --      4.3951                 6.4253                 6.5953
 Frc consts  --      0.9649                 1.5149                 1.6440
 IR Inten    --    171.5222                29.1227                97.0434

                     31                     32                     33
                      A                      A                      A
 Frequencies --    699.8139               715.6060               725.9314
 Red. masses --      2.1077                 4.2732                 1.6484
 Frc consts  --      0.6082                 1.2893                 0.5118
 IR Inten    --     12.7422               224.3085                79.2938

                     34                     35                     36
                      A                      A                      A
 Frequencies --    792.0666               805.0205               832.5294
 Red. masses --      4.0739                 3.1154                 4.9022
 Frc consts  --      1.5059                 1.1895                 2.0019
 IR Inten    --    111.0069                32.4393                55.2662

                     37                     38                     39
                      A                      A                      A
 Frequencies --    880.4651               906.7605               974.9401
 Red. masses --      1.2492                 4.6002                 1.4242
 Frc consts  --      0.5706                 2.2285                 0.7976
 IR Inten    --      0.4417                32.4537                 1.7763

                     40                     41                     42
                      A                      A                      A
 Frequencies --   1023.2670              1026.0465              1026.6833
 Red. masses --      1.4803                 3.4921                 1.4639
 Frc consts  --      0.9132                 2.1660                 0.9091
 IR Inten    --      3.7935                 7.2987                36.4718

                     43                     44                     45
                      A                      A                      A
 Frequencies --   1039.7974              1048.9458              1072.2118
 Red. masses --      1.3236                 1.8391                 1.9616
 Frc consts  --      0.8431                 1.1923                 1.3287
 IR Inten    --      0.3923                34.2791                12.5686

                     46                     47                     48
                      A                      A                      A
 Frequencies --   1077.1712              1081.6960              1087.0111
 Red. masses --      1.9811                 1.3722                 1.8561
 Frc consts  --      1.3543                 0.9459                 1.2922
 IR Inten    --     10.7622                15.7476               124.5407

                     49                     50                     51
                      A                      A                      A
 Frequencies --   1130.9177              1133.8942              1173.4702
 Red. masses --      1.2350                 1.6125                 1.4098
 Frc consts  --      0.9307                 1.2215                 1.1438
 IR Inten    --      1.1288                 6.5446                 7.2269

                     52                     53                     54
                      A                      A                      A
 Frequencies --   1189.1204              1195.8370              1228.7200
 Red. masses --      1.2039                 2.5062                 1.9008
 Frc consts  --      1.0029                 2.1116                 1.6908
 IR Inten    --      4.2806                35.9081               236.4520

                     55                     56                     57
                      A                      A                      A
 Frequencies --   1235.3020              1244.8369              1313.4048
 Red. masses --      1.2185                 2.0705                 5.4920
 Frc consts  --      1.0955                 1.8904                 5.5819
 IR Inten    --     23.5708                97.0769                65.9047

                     58                     59                     60
                      A                      A                      A
 Frequencies --   1320.8717              1336.2396              1380.7161
 Red. masses --      5.2199                 1.3020                 1.3728
 Frc consts  --      5.3658                 1.3698                 1.5419
 IR Inten    --     13.2106                 7.6082                 8.9572

                     61                     62                     63
                      A                      A                      A
 Frequencies --   1422.1872              1438.6224              1443.5636
 Red. masses --      2.2254                 1.1963                 1.8899
 Frc consts  --      2.6520                 1.4587                 2.3203
 IR Inten    --    468.3980                40.4068               220.4753

                     64                     65                     66
                      A                      A                      A
 Frequencies --   1463.9615              1468.0918              1480.9087
 Red. masses --      1.5075                 1.3687                 1.0888
 Frc consts  --      1.9036                 1.7380                 1.4068
 IR Inten    --    143.8729                21.6881                12.5630

                     67                     68                     69
                      A                      A                      A
 Frequencies --   1491.5766              1495.1805              1498.1607
 Red. masses --      1.1167                 1.3619                 1.4378
 Frc consts  --      1.4638                 1.7939                 1.9014
 IR Inten    --     19.7696                91.9222                64.1196

                     70                     71                     72
                      A                      A                      A
 Frequencies --   1501.3168              1503.6830              1535.6441
 Red. masses --      1.0515                 1.0430                 1.5257
 Frc consts  --      1.3964                 1.3895                 2.1198
 IR Inten    --     30.3158                26.1555               205.2450

                     73                     74                     75
                      A                      A                      A
 Frequencies --   1550.1686              1627.6640              1643.6135
 Red. masses --      2.2039                 1.0910                 8.4679
 Frc consts  --      3.1203                 1.7029                13.4781
 IR Inten    --     12.1238                88.2681               767.7645

                     76                     77                     78
                      A                      A                      A
 Frequencies --   1652.8313              1676.1454              3034.9986
 Red. masses --      5.4832                 5.6763                 1.0394
 Frc consts  --      8.8256                 9.3959                 5.6411
 IR Inten    --      6.3301                 0.2798                45.2170

                     79                     80                     81
                      A                      A                      A
 Frequencies --   3039.0603              3070.6627              3091.7660
 Red. masses --      1.0400                 1.0358                 1.1029
 Frc consts  --      5.6594                 5.7542                 6.2114
 IR Inten    --    137.0043                24.8324                75.9112

                     82                     83                     84
                      A                      A                      A
 Frequencies --   3101.2408              3150.0052              3173.6978
 Red. masses --      1.1004                 1.1029                 1.0994
 Frc consts  --      6.2353                 6.4477                 6.5241
 IR Inten    --     17.3614                 4.3680                 8.1355

                     85                     86                     87
                      A                      A                      A
 Frequencies --   3175.6308              3187.3337              3200.8082
 Red. masses --      1.0985                 1.1046                 1.0866
 Frc consts  --      6.5269                 6.6119                 6.5588
 IR Inten    --      8.7542                 9.2559                 0.1049

                     88                     89                     90
                      A                      A                      A
 Frequencies --   3210.5885              3221.7802              3234.1061
 Red. masses --      1.0907                 1.0957                 1.0948
 Frc consts  --      6.6241                 6.7006                 6.7464
 IR Inten    --     14.4358                24.4837                 5.6318

                     91                     92                     93
                      A                      A                      A
 Frequencies --   3251.7831              3517.8736              3599.9922
 Red. masses --      1.0918                 1.0513                 1.0967
 Frc consts  --      6.8019                 7.6653                 8.3741
 IR Inten    --      2.3822                62.5036                71.4692

 - Thermochemistry -
 -------------------
 Temperature   298.150 Kelvin.  Pressure   1.00000 Atm.
 Atom     1 has atomic number  6 and mass  12.00000

 Molecular mass:   318.01345 amu.
 Principal axes and moments of inertia in atomic units:
                           1         2         3
     Eigenvalues --  3860.409776193.045357599.54219
           X            0.99960  -0.02543   0.01215
           Y            0.02610   0.99794  -0.05868
           Z           -0.01064   0.05898   0.99820
 This molecule is an asymmetric top.
 Rotational symmetry number  1.
 Warning -- assumption of classical behavior for rotation
           may cause significant error
 Rotational temperatures (Kelvin)      0.02244     0.01399     0.01140
 Rotational constants (GHZ):           0.46750     0.29141     0.23748
    1 imaginary frequencies ignored.
 Zero-point vibrational energy     700097.3 (Joules/Mol)
                                  167.32728 (Kcal/Mol)
 Warning -- explicit consideration of  27 degrees of freedom as
           vibrations may cause significant error
 Vibrational temperatures:     60.30    79.18   100.53   104.94   127.88
          (Kelvin)            139.31   150.99   175.42   230.95   238.08
                              265.54   286.25   323.61   332.89   376.35
                              382.60   398.74   434.48   466.39   480.23
                              499.15   550.22   619.58   650.14   750.31
                              839.87   878.26   910.14   935.86  1006.88
                             1029.60  1044.45  1139.61  1158.24  1197.82
                             1266.79  1304.63  1402.72  1472.25  1476.25
                             1477.17  1496.04  1509.20  1542.67  1549.81
                             1556.32  1563.97  1627.14  1631.42  1688.36
                             1710.88  1720.54  1767.85  1777.32  1791.04
                             1889.70  1900.44  1922.55  1986.54  2046.21
                             2069.86  2076.97  2106.31  2112.26  2130.70
                             2146.05  2151.23  2155.52  2160.06  2163.46
                             2209.45  2230.35  2341.85  2364.79  2378.06
                             2411.60  4366.69  4372.53  4418.00  4448.36
                             4461.99  4532.15  4566.24  4569.02  4585.86
                             4605.25  4619.32  4635.42  4653.16  4678.59
                             5061.44  5179.59

 Zero-point correction=                           0.266653 (Hartree/Particle)
 Thermal correction to Energy=                    0.284931
 Thermal correction to Enthalpy=                  0.285875
 Thermal correction to Gibbs Free Energy=         0.219497
 Sum of electronic and zero-point Energies=          -3685.783213
 Sum of electronic and thermal Energies=             -3685.764935
 Sum of electronic and thermal Enthalpies=           -3685.763991
 Sum of electronic and thermal Free Energies=        -3685.830369

                     E (Thermal)             CV                S
                      KCal/Mol        Cal/Mol-Kelvin    Cal/Mol-Kelvin
 Total                  178.797             65.908            139.703
 Electronic               0.000              0.000              0.000
 Translational            0.889              2.981             43.167
 Rotational               0.889              2.981             33.563
 Vibrational            177.019             59.946             62.974
 Vibration     1          0.595              1.980              5.167
 Vibration     2          0.596              1.976              4.628
 Vibration     3          0.598              1.968              4.157
 Vibration     4          0.599              1.967              4.073
 Vibration     5          0.602              1.957              3.685
 Vibration     6          0.603              1.951              3.517
 Vibration     7          0.605              1.945              3.360
 Vibration     8          0.609              1.931              3.070
 Vibration     9          0.622              1.891              2.544
 Vibration    10          0.624              1.885              2.486
 Vibration    11          0.631              1.861              2.282
 Vibration    12          0.637              1.841              2.143
 Vibration    13          0.650              1.803              1.919
 Vibration    14          0.653              1.793              1.868
 Vibration    15          0.669              1.743              1.651
 Vibration    16          0.672              1.736              1.623
 Vibration    17          0.678              1.716              1.551
 Vibration    18          0.694              1.670              1.406
 Vibration    19          0.709              1.627              1.289
 Vibration    20          0.715              1.608              1.242
 Vibration    21          0.725              1.582              1.180
 Vibration    22          0.752              1.508              1.030
 Vibration    23          0.792              1.404              0.857
 Vibration    24          0.811              1.357              0.790
 Vibration    25          0.876              1.202              0.607
 Vibration    26          0.941              1.067              0.478
 Vibration    27          0.969              1.010              0.432

 Optimization completed.
    -- Stationary point found.
 Normal termination of Gaussian 16 at Fri Feb 26 09:57:57 2021.
