 Gaussian 16, Revision A.03,
 Gaussian 16:  ES64L-G16RevA.03 25-Dec-2016

 ----------------------------------------------------------------------
 # wB97XD def2tzvp, opt=(ts, noeigen, calcfc, maxcycles=70, maxstep=3),
  freq=noraman, scrf=(iefpcm, solvent=water)
 ----------------------------------------------------------------------

 -----------------------
 0_iteration/TS-85-0.out
 -----------------------
 Symbolic Z-matrix:
 Charge =  0 Multiplicity = 1

 SCF Done:  E(RwB97XD) =  -883.901588408     A.U. after   15 cycles
 SCF Done:  E(RwB97XD) =  -883.901619400     A.U. after   10 cycles
 SCF Done:  E(RwB97XD) =  -883.901624747     A.U. after   10 cycles
 SCF Done:  E(RwB97XD) =  -883.901629426     A.U. after   10 cycles
 SCF Done:  E(RwB97XD) =  -883.901629593     A.U. after    8 cycles
 SCF Done:  E(RwB97XD) =  -883.901629636     A.U. after    7 cycles
 Optimization completed.
    -- Stationary point found.
 Normal termination of Gaussian 16 at Mon Apr 12 23:54:07 2021.

 ---------------------------------------------------------------------
 #N Geom=AllCheck Guess=TCheck SCRF=Check GenChk RwB97XD/def2TZVP Freq
 ---------------------------------------------------------------------

 Structure from the checkpoint file:  "/beegfs/scratch/user/q/tla25/Gau-145341.chk"
 -----------------------
 0_iteration/TS-85-0.out
 -----------------------
 Charge =  0 Multiplicity = 1

                         Standard orientation:
 ---------------------------------------------------------------------
 Center     Atomic      Atomic             Coordinates (Angstroms)
 Number     Number       Type             X           Y           Z
 ---------------------------------------------------------------------
      1          6           0       -0.906402   -0.339625   -0.292688
      2          6           0       -2.214660   -0.943420   -0.266400
      3          8           0       -2.420174   -2.161614   -0.046607
      4          6           0        0.239518   -1.188003   -0.395533
      5          6           0        1.140048   -3.325229    1.427203
      6          1           0        0.998263   -3.767471    2.414746
      7          1           0        1.040714   -4.107683    0.678421
      8          1           0        2.143725   -2.903623    1.368437
      9          7           0        0.161278   -2.275728    1.166550
     10          1           0       -0.787687   -2.621311    1.009135
     11          1           0        0.123398   -1.601658    1.920264
     12          6           0        1.592490   -0.542973   -0.226867
     13          6           0        1.899830    0.172845    0.930799
     14          6           0        3.134375    0.773463    1.097185
     15          6           0        4.095652    0.679705    0.098932
     16          6           0        3.807054   -0.028476   -1.055247
     17          6           0        2.570379   -0.641608   -1.210987
     18          1           0        1.156492    0.284306    1.709627
     19          1           0        3.345761    1.321194    2.006866
     20          1           0        5.061121    1.153281    0.223764
     21          1           0        4.546306   -0.111445   -1.841975
     22          1           0        2.372899   -1.187502   -2.122922
     23          6           0        0.218418   -2.307470   -1.420042
     24          1           0        0.293725   -1.863648   -2.414160
     25          1           0        1.052154   -2.998791   -1.298115
     26          1           0       -0.718225   -2.853020   -1.367454
     27          6           0       -0.783095    1.128465   -0.105913
     28          6           0       -0.110322    1.926308   -1.036954
     29          6           0        0.029991    3.294001   -0.856680
     30          6           0       -0.525600    3.913762    0.253935
     31          6           0       -1.219576    3.146964    1.180326
     32          6           0       -1.339198    1.777181    1.002994
     33          1           0        0.318724    1.456528   -1.913863
     34          1           0        0.566529    3.880192   -1.593120
     35          1           0       -0.422371    4.982405    0.394599
     36          1           0       -1.656842    3.615624    2.053782
     37          1           0       -1.863193    1.186778    1.746200
     38          7           0       -3.298982   -0.138813   -0.483251
     39          6           0       -4.643770   -0.574244   -0.196001
     40          1           0       -3.138358    0.847268   -0.576406
     41          1           0       -4.916113   -1.438930   -0.802294
     42          1           0       -4.773903   -0.846574    0.856115
     43          1           0       -5.328594    0.238912   -0.430254
 ---------------------------------------------------------------------

 SCF Done:  E(RwB97XD) =  -883.901629636     A.U. after    1 cycles

 The electronic state is 1-A.
 Alpha  occ. eigenvalues --  -19.19100 -14.47041 -14.43416 -10.36289 -10.34995
 Alpha  occ. eigenvalues --  -10.31338 -10.30222 -10.30179 -10.29235 -10.29135
 Alpha  occ. eigenvalues --  -10.29119 -10.29088 -10.29050 -10.29016 -10.28411
 Alpha  occ. eigenvalues --  -10.28352 -10.28207 -10.27951 -10.27835 -10.26974
 Alpha  occ. eigenvalues --  -10.24649  -1.11383  -1.02978  -1.00103  -0.97257
 Alpha  occ. eigenvalues --   -0.95770  -0.91150  -0.86280  -0.85261  -0.84262
 Alpha  occ. eigenvalues --   -0.83432  -0.80565  -0.78856  -0.76586  -0.72290
 Alpha  occ. eigenvalues --   -0.70356  -0.69510  -0.68686  -0.66601  -0.64868
 Alpha  occ. eigenvalues --   -0.62376  -0.61046  -0.60217  -0.57994  -0.55995
 Alpha  occ. eigenvalues --   -0.55810  -0.55156  -0.54326  -0.53560  -0.53195
 Alpha  occ. eigenvalues --   -0.52781  -0.52075  -0.51734  -0.51030  -0.50075
 Alpha  occ. eigenvalues --   -0.49226  -0.48245  -0.47599  -0.47400  -0.46716
 Alpha  occ. eigenvalues --   -0.46477  -0.46194  -0.45290  -0.44610  -0.43177
 Alpha  occ. eigenvalues --   -0.42550  -0.41841  -0.41545  -0.40443  -0.34819
 Alpha  occ. eigenvalues --   -0.33870  -0.33809  -0.32699  -0.32436  -0.31840
 Alpha  occ. eigenvalues --   -0.24571
 Alpha virt. eigenvalues --    0.02917   0.04702   0.05798   0.06181   0.09015
 Alpha virt. eigenvalues --    0.10303   0.12410   0.13160   0.13342   0.13895
 Alpha virt. eigenvalues --    0.14378   0.15344   0.16202   0.16475   0.16854

 Mulliken charges:
               1
     1  C   -0.227435
     2  C    0.356387
     3  O   -0.615152
     4  C    0.290263
     5  C   -0.300981
     6  H    0.150874
     7  H    0.155843
     8  H    0.152097
     9  N   -0.291709
    10  H    0.273045
    11  H    0.257918
    12  C    0.098389
    13  C   -0.267452
    14  C   -0.177558
    15  C   -0.130851
    16  C   -0.157263
    17  C   -0.228199
    18  H    0.170460
    19  H    0.140718
    20  H    0.143529
    21  H    0.141197
    22  H    0.152468
    23  C   -0.448361
    24  H    0.142838
    25  H    0.146604
    26  H    0.164836
    27  C    0.129564
    28  C   -0.209499
    29  C   -0.177634
    30  C   -0.146480
    31  C   -0.124489
    32  C   -0.311149
    33  H    0.141175
    34  H    0.133611
    35  H    0.138745
    36  H    0.136228
    37  H    0.137347
    38  N   -0.315881
    39  C   -0.251869
    40  H    0.253666
    41  H    0.122152
    42  H    0.116035
    43  H    0.135971
 Sum of Mulliken charges =  -0.00000

 Dipole moment (field-independent basis, Debye):
    X=              3.9061    Y=             -0.2156    Z=              2.7877  Tot=              4.8037
 Quadrupole moment (field-independent basis, Debye-Ang):
   XX=           -121.5633   YY=           -121.4368   ZZ=           -115.7743
   XY=            -11.7828   XZ=             -4.0371   YZ=             -3.0694

  Exact polarizability: 356.516  10.017 345.609 -18.376   8.405 286.274
 Approx polarizability: 265.732  12.254 270.548 -18.455   8.405 249.133

 ******    1 imaginary frequencies (negative Signs) ******

                      1                      2                      3
                      A                      A                      A
 Frequencies --   -383.2021                32.7913                43.7171
 Red. masses --      6.0466                 4.1688                 4.5387
 Frc consts  --      0.5231                 0.0026                 0.0051
 IR Inten    --    864.5946                 1.2876                 1.1580

                      4                      5                      6
                      A                      A                      A
 Frequencies --     60.5299                67.3722                73.6698
 Red. masses --      3.6530                 4.0941                 2.7651
 Frc consts  --      0.0079                 0.0109                 0.0088
 IR Inten    --     10.9670                 1.8181                 3.7735

                      7                      8                      9
                      A                      A                      A
 Frequencies --     75.9783                87.6981               100.3033
 Red. masses --      3.0733                 2.3357                 2.3375
 Frc consts  --      0.0105                 0.0106                 0.0139
 IR Inten    --      1.2287                 6.7503                 4.4324

                     10                     11                     12
                      A                      A                      A
 Frequencies --    130.6420               140.7958               156.2691
 Red. masses --      1.3139                 2.7479                 2.0761
 Frc consts  --      0.0132                 0.0321                 0.0299
 IR Inten    --      1.9449                25.7196                 6.6712

                     13                     14                     15
                      A                      A                      A
 Frequencies --    177.3159               197.1944               238.4500
 Red. masses --      4.0400                 2.1172                 3.6294
 Frc consts  --      0.0748                 0.0485                 0.1216
 IR Inten    --      2.9052                 4.7741                 3.1667

                     16                     17                     18
                      A                      A                      A
 Frequencies --    264.0565               283.5540               295.0510
 Red. masses --      4.6319                 3.2297                 3.0448
 Frc consts  --      0.1903                 0.1530                 0.1562
 IR Inten    --      0.7606                 6.0339                 4.0495

                     19                     20                     21
                      A                      A                      A
 Frequencies --    299.3945               314.9663               333.8272
 Red. masses --      3.6326                 3.4068                 1.3103
 Frc consts  --      0.1918                 0.1991                 0.0860
 IR Inten    --    111.9282                 6.7516                 5.3362

                     22                     23                     24
                      A                      A                      A
 Frequencies --    353.3195               404.3652               413.3908
 Red. masses --      2.9577                 2.8315                 5.4546
 Frc consts  --      0.2175                 0.2728                 0.5492
 IR Inten    --      2.0989                66.5960                18.0891

                     25                     26                     27
                      A                      A                      A
 Frequencies --    423.3948               424.8585               445.8635
 Red. masses --      2.8126                 2.7707                 1.6212
 Frc consts  --      0.2971                 0.2947                 0.1899
 IR Inten    --      4.7504                 6.6319                48.6983

                     28                     29                     30
                      A                      A                      A
 Frequencies --    470.1571               515.4725               558.8751
 Red. masses --      2.9082                 3.8119                 3.6554
 Frc consts  --      0.3788                 0.5968                 0.6727
 IR Inten    --     14.3784                66.1229                22.4504

                     31                     32                     33
                      A                      A                      A
 Frequencies --    579.7286               632.1274               638.8477
 Red. masses --      3.4664                 4.2182                 6.3242
 Frc consts  --      0.6864                 0.9931                 1.5207
 IR Inten    --     91.6466                34.2919                 0.4766

                     34                     35                     36
                      A                      A                      A
 Frequencies --    639.5054               684.8969               719.6650
 Red. masses --      5.9593                 5.6597                 1.4964
 Frc consts  --      1.4359                 1.5642                 0.4566
 IR Inten    --      3.7297                36.3004                67.6900

                     37                     38                     39
                      A                      A                      A
 Frequencies --    728.4645               739.0023               750.7883
 Red. masses --      1.5606                 1.2969                 3.6886
 Frc consts  --      0.4879                 0.4173                 1.2250
 IR Inten    --     87.9165                73.0631                 3.6636

                     40                     41                     42
                      A                      A                      A
 Frequencies --    790.9699               801.2573               809.3708
 Red. masses --      6.7616                 2.3201                 2.6000
 Frc consts  --      2.4924                 0.8776                 1.0035
 IR Inten    --     96.0679                15.2871                37.4553

                     43                     44                     45
                      A                      A                      A
 Frequencies --    846.6661               876.9074               878.1561
 Red. masses --      3.0395                 1.2481                 1.2489
 Frc consts  --      1.2837                 0.5655                 0.5675
 IR Inten    --      2.1393                 3.5460                 1.3053

                     46                     47                     48
                      A                      A                      A
 Frequencies --    948.3292               960.4575               985.6781
 Red. masses --      1.4634                 1.4302                 3.3930
 Frc consts  --      0.7754                 0.7773                 1.9422
 IR Inten    --      1.3105                 6.6562                45.1161

                     49                     50                     51
                      A                      A                      A
 Frequencies --   1002.7118              1011.4249              1014.4594
 Red. masses --      2.3595                 1.3718                 1.3839
 Frc consts  --      1.3977                 0.8268                 0.8391
 IR Inten    --      5.5334                 2.3502                 0.3722

                     52                     53                     54
                      A                      A                      A
 Frequencies --   1022.1251              1023.8588              1026.8702
 Red. masses --      1.3217                 4.0680                 3.6557
 Frc consts  --      0.8136                 2.5125                 2.2712
 IR Inten    --      0.8124                 1.6280                 0.8373

                     55                     56                     57
                      A                      A                      A
 Frequencies --   1029.8393              1031.1765              1052.3803
 Red. masses --      1.4801                 1.3502                 1.7972
 Frc consts  --      0.9249                 0.8459                 1.1727
 IR Inten    --     14.0336                 1.5698               187.0978

                     58                     59                     60
                      A                      A                      A
 Frequencies --   1055.5273              1063.2561              1069.3963
 Red. masses --      1.6198                 2.1918                 1.7541
 Frc consts  --      1.0633                 1.4599                 1.1819
 IR Inten    --     38.3176                14.0837                40.7581

                     61                     62                     63
                      A                      A                      A
 Frequencies --   1099.7361              1108.1230              1119.8697
 Red. masses --      2.3068                 1.5763                 1.8566
 Frc consts  --      1.6437                 1.1404                 1.3719
 IR Inten    --    106.9766                16.6905                39.2002

                     64                     65                     66
                      A                      A                      A
 Frequencies --   1126.3497              1151.4398              1164.5847
 Red. masses --      1.7953                 1.3872                 1.9141
 Frc consts  --      1.3419                 1.0836                 1.5296
 IR Inten    --     11.6507                 3.6395                59.7483

                     67                     68                     69
                      A                      A                      A
 Frequencies --   1179.8850              1186.3614              1187.6056
 Red. masses --      1.1265                 1.1413                 2.1755
 Frc consts  --      0.9240                 0.9464                 1.8078
 IR Inten    --      1.4157                 1.7934                31.4041

                     70                     71                     72
                      A                      A                      A
 Frequencies --   1207.7386              1212.9357              1225.8787
 Red. masses --      1.1242                 1.3544                 1.1593
 Frc consts  --      0.9661                 1.1740                 1.0265
 IR Inten    --      2.0390                54.5671                21.0873

                     73                     74                     75
                      A                      A                      A
 Frequencies --   1248.4996              1292.3147              1302.4504
 Red. masses --      3.5647                 2.6174                 4.3422
 Frc consts  --      3.2737                 2.5754                 4.3399
 IR Inten    --     12.8444               453.5102                 1.3931

                     76                     77                     78
                      A                      A                      A
 Frequencies --   1322.6530              1334.6863              1343.8468
 Red. masses --      4.4231                 1.6820                 2.5363
 Frc consts  --      4.5590                 1.7654                 2.6987
 IR Inten    --     26.3115                86.8995               152.5576

                     79                     80                     81
                      A                      A                      A
 Frequencies --   1359.0809              1370.7991              1385.1981
 Red. masses --      1.5601                 1.4616                 2.5224
 Frc consts  --      1.6978                 1.6181                 2.8515
 IR Inten    --     19.4512                29.5333               413.3219

                     82                     83                     84
                      A                      A                      A
 Frequencies --   1413.3915              1454.6315              1457.5507
 Red. masses --      1.4928                 1.2762                 1.2069
 Frc consts  --      1.7570                 1.5910                 1.5106
 IR Inten    --    155.7357                53.5751                 6.8283

                     85                     86                     87
                      A                      A                      A
 Frequencies --   1475.8005              1485.1928              1488.0548
 Red. masses --      1.0492                 1.7536                 1.3614
 Frc consts  --      1.3463                 2.2790                 1.7761
 IR Inten    --     22.5727                18.7299                28.6255

                     88                     89                     90
                      A                      A                      A
 Frequencies --   1493.3326              1498.3626              1505.8022
 Red. masses --      1.3980                 1.2033                 1.0519
 Frc consts  --      1.8368                 1.5917                 1.4052
 IR Inten    --      2.4797                36.9708                 9.0010

                     91                     92                     93
                      A                      A                      A
 Frequencies --   1507.3402              1509.6797              1535.4970
 Red. masses --      1.1271                 1.1509                 1.8065
 Frc consts  --      1.5089                 1.5454                 2.5095
 IR Inten    --     37.9357                74.4505               579.2995

                     94                     95                     96
                      A                      A                      A
 Frequencies --   1537.9913              1549.5777              1598.8365
 Red. masses --      2.3471                 2.2721                 4.9670
 Frc consts  --      3.2711                 3.2144                 7.4809
 IR Inten    --     63.6904                13.7910               810.4091

                     97                     98                     99
                      A                      A                      A
 Frequencies --   1637.8810              1654.2989              1664.4778
 Red. masses --      5.6094                 5.6368                 1.1830
 Frc consts  --      8.8661                 9.0889                 1.9311
 IR Inten    --      9.7570                 6.8291                79.4812

                    100                    101                    102
                      A                      A                      A
 Frequencies --   1666.3947              1678.4262              3032.6339
 Red. masses --      4.2112                 5.7543                 1.0441
 Frc consts  --      6.8899                 9.5509                 5.6573
 IR Inten    --     23.1606                 0.1151               119.0427

                    103                    104                    105
                      A                      A                      A
 Frequencies --   3060.3173              3069.6419              3100.5407
 Red. masses --      1.0352                 1.0393                 1.0939
 Frc consts  --      5.7124                 5.7701                 6.1961
 IR Inten    --     67.2058                33.8104                54.9824

                    106                    107                    108
                      A                      A                      A
 Frequencies --   3132.6273              3135.5560              3150.6804
 Red. masses --      1.1038                 1.1010                 1.1018
 Frc consts  --      6.3823                 6.3778                 6.4438
 IR Inten    --     24.0954                34.1888                28.5953

                    109                    110                    111
                      A                      A                      A
 Frequencies --   3165.4133              3182.0722              3187.1867
 Red. masses --      1.1038                 1.0864                 1.0881
 Frc consts  --      6.5166                 6.4813                 6.5120
 IR Inten    --     17.9295                12.7845                 1.3207

                    112                    113                    114
                      A                      A                      A
 Frequencies --   3187.2492              3195.2288              3197.7341
 Red. masses --      1.0992                 1.0858                 1.0912
 Frc consts  --      6.5792                 6.5312                 6.5743
 IR Inten    --      4.5144                 2.1284                15.6845

                    115                    116                    117
                      A                      A                      A
 Frequencies --   3202.3227              3203.7648              3211.6307
 Red. masses --      1.0887                 1.0947                 1.0931
 Frc consts  --      6.5781                 6.6202                 6.6429
 IR Inten    --      4.5035                53.2625                31.6543

                    118                    119                    120
                      A                      A                      A
 Frequencies --   3216.2433              3221.3231              3231.4680
 Red. masses --      1.0986                 1.0969                 1.0939
 Frc consts  --      6.6955                 6.7064                 6.7302
 IR Inten    --     23.0905                23.7708                10.6911

                    121                    122                    123
                      A                      A                      A
 Frequencies --   3404.4988              3591.6007              3677.1777
 Red. masses --      1.0668                 1.0830                 1.0773
 Frc consts  --      7.2848                 8.2310                 8.5825
 IR Inten    --    172.2717                40.5129                67.1451

 - Thermochemistry -
 -------------------
 Temperature   298.150 Kelvin.  Pressure   1.00000 Atm.
 Atom     1 has atomic number  6 and mass  12.00000

 Molecular mass:   282.17321 amu.
 Principal axes and moments of inertia in atomic units:
                           1         2         3
     Eigenvalues --  4643.525496036.089728992.47408
           X            0.99983  -0.01834  -0.00291
           Y            0.01834   0.99983  -0.00102
           Z            0.00292   0.00097   1.00000
 This molecule is an asymmetric top.
 Rotational symmetry number  1.
 Warning -- assumption of classical behavior for rotation
           may cause significant error
 Rotational temperatures (Kelvin)      0.01865     0.01435     0.00963
 Rotational constants (GHZ):           0.38866     0.29899     0.20069
    1 imaginary frequencies ignored.
 Zero-point vibrational energy     964767.8 (Joules/Mol)
                                  230.58505 (Kcal/Mol)
 Warning -- explicit consideration of  30 degrees of freedom as
           vibrations may cause significant error
 Vibrational temperatures:     47.18    62.90    87.09    96.93   105.99
          (Kelvin)            109.32   126.18   144.31   187.96   202.57
                              224.84   255.12   283.72   343.08   379.92
                              407.97   424.51   430.76   453.17   480.30
                              508.35   581.79   594.78   609.17   611.28
                              641.50   676.45   741.65   804.10   834.10
                              909.49   919.16   920.11   985.41  1035.44
                             1048.10  1063.26  1080.22  1138.03  1152.83
                             1164.50  1218.16  1261.67  1263.47  1364.43
                             1381.88  1418.17  1442.68  1455.21  1459.58
                             1470.61  1473.10  1477.44  1481.71  1483.63
                             1514.14  1518.67  1529.79  1538.62  1582.27
                             1594.34  1611.24  1620.57  1656.67  1675.58
                             1697.59  1706.91  1708.70  1737.67  1745.14
                             1763.77  1796.31  1859.35  1873.94  1903.00
                             1920.32  1933.50  1955.41  1972.27  1992.99
                             2033.56  2092.89  2097.09  2123.35  2136.86
                             2140.98  2148.57  2155.81  2166.51  2168.73
                             2172.09  2209.24  2212.83  2229.50  2300.37
                             2356.55  2380.17  2394.81  2397.57  2414.88
                             4363.28  4403.11  4416.53  4460.99  4507.15
                             4511.37  4533.13  4554.32  4578.29  4585.65
                             4585.74  4597.22  4600.83  4607.43  4609.50
                             4620.82  4627.46  4634.77  4649.36  4898.31
                             5167.51  5290.64

 Zero-point correction=                           0.367461 (Hartree/Particle)
 Thermal correction to Energy=                    0.387759
 Thermal correction to Enthalpy=                  0.388704
 Thermal correction to Gibbs Free Energy=         0.318154
 Sum of electronic and zero-point Energies=           -883.534169
 Sum of electronic and thermal Energies=              -883.513870
 Sum of electronic and thermal Enthalpies=            -883.512926
 Sum of electronic and thermal Free Energies=         -883.583476

                     E (Thermal)             CV                S
                      KCal/Mol        Cal/Mol-Kelvin    Cal/Mol-Kelvin
 Total                  243.323             77.463            148.484
 Electronic               0.000              0.000              0.000
 Translational            0.889              2.981             42.810
 Rotational               0.889              2.981             33.888
 Vibrational            241.545             71.502             71.786
 Vibration     1          0.594              1.983              5.653
 Vibration     2          0.595              1.980              5.083
 Vibration     3          0.597              1.973              4.440
 Vibration     4          0.598              1.970              4.229
 Vibration     5          0.599              1.966              4.053
 Vibration     6          0.599              1.965              3.992
 Vibration     7          0.601              1.958              3.711
 Vibration     8          0.604              1.949              3.448
 Vibration     9          0.612              1.923              2.937
 Vibration    10          0.615              1.912              2.793
 Vibration    11          0.620              1.896              2.594
 Vibration    12          0.628              1.870              2.356
 Vibration    13          0.637              1.844              2.159
 Vibration    14          0.656              1.782              1.814
 Vibration    15          0.671              1.739              1.635
 Vibration    16          0.682              1.704              1.512
 Vibration    17          0.689              1.683              1.445
 Vibration    18          0.692              1.675              1.420
 Vibration    19          0.702              1.645              1.336
 Vibration    20          0.715              1.608              1.241
 Vibration    21          0.730              1.568              1.151
 Vibration    22          0.770              1.461              0.947
 Vibration    23          0.777              1.441              0.915
 Vibration    24          0.786              1.419              0.881
 Vibration    25          0.787              1.416              0.876
 Vibration    26          0.805              1.370              0.808
 Vibration    27          0.827              1.316              0.737
 Vibration    28          0.871              1.216              0.621
 Vibration    29          0.914              1.120              0.526
 Vibration    30          0.936              1.075              0.486

 Optimization completed.
    -- Stationary point found.
 Normal termination of Gaussian 16 at Tue Apr 13 01:24:07 2021.
