 Gaussian 16, Revision A.03,
 Gaussian 16:  ES64L-G16RevA.03 25-Dec-2016

 ----------------------------------------------------------------------
 # wB97XD def2tzvp, opt=(ts, noeigen, calcfc, maxcycles=70, maxstep=5),
  freq=noraman, scrf=(iefpcm, solvent=water)
 ----------------------------------------------------------------------

 -----------------------
 2_iteration/TS-80-2.out
 -----------------------
 Symbolic Z-matrix:
 Charge =  0 Multiplicity = 1

 SCF Done:  E(RwB97XD) =  -1209.50707465     A.U. after   15 cycles
 SCF Done:  E(RwB97XD) =  -1209.50707466     A.U. after    6 cycles
 Optimization completed.
    -- Stationary point found.
 Normal termination of Gaussian 16 at Sun Jun 13 10:57:22 2021.

 ---------------------------------------------------------------------
 #N Geom=AllCheck Guess=TCheck SCRF=Check GenChk RwB97XD/def2TZVP Freq
 ---------------------------------------------------------------------

 Structure from the checkpoint file:  "/beegfs/scratch/user/q/tla25/Gau-92386.chk"
 -----------------------
 2_iteration/TS-80-2.out
 -----------------------
 Charge =  0 Multiplicity = 1

                         Standard orientation:
 ---------------------------------------------------------------------
 Center     Atomic      Atomic             Coordinates (Angstroms)
 Number     Number       Type             X           Y           Z
 ---------------------------------------------------------------------
      1          6           0       -0.051598    0.087708    0.089951
      2          6           0       -1.222238    0.370906    0.861724
      3          8           0       -1.174403    0.987512    1.934516
      4          6           0        1.186653    0.560029    0.516940
      5          6           0        0.315806    3.123622   -0.386238
      6          1           0       -0.461893    2.492498   -0.819072
      7          1           0       -0.004146    3.431567    0.606264
      8          1           0        0.452611    4.002129   -1.016878
      9          7           0        1.537383    2.339431   -0.275882
     10          1           0        1.962234    2.183525   -1.181835
     11          1           0        2.228309    2.783151    0.316788
     12          6           0        2.500799   -0.082159    0.257367
     13          6           0        3.276668   -0.430263    1.361600
     14          6           0        4.502970   -1.056439    1.199750
     15          6           0        4.981085   -1.326506   -0.073529
     16          6           0        4.225666   -0.966144   -1.180740
     17          6           0        2.994442   -0.351648   -1.018286
     18          1           0        2.912344   -0.213152    2.358651
     19          1           0        5.087583   -1.325812    2.070084
     20          1           0        5.941193   -1.809252   -0.203967
     21          1           0        4.596542   -1.164128   -2.178327
     22          1           0        2.420020   -0.078435   -1.892846
     23          1           0        1.103531    0.969110    1.517580
     24         17           0       -0.186536   -0.859741   -1.383472
     25          6           0       -2.572955   -0.099539    0.395053
     26          6           0       -3.306807   -0.956568    1.208028
     27          6           0       -4.584451   -1.350630    0.839419
     28          6           0       -5.148780   -0.870191   -0.334057
     29          6           0       -4.427124   -0.000817   -1.140299
     30          6           0       -3.141095    0.374810   -0.782397
     31          1           0       -2.872066   -1.317225    2.132252
     32          1           0       -5.142662   -2.028923    1.472468
     33          1           0       -6.149350   -1.170465   -0.618513
     34          1           0       -4.865242    0.383631   -2.052787
     35          1           0       -2.578612    1.044227   -1.421506
 ---------------------------------------------------------------------

 SCF Done:  E(RwB97XD) =  -1209.50707466     A.U. after    1 cycles

 The electronic state is 1-A.
 Alpha  occ. eigenvalues -- -101.68852 -19.21316 -14.47978 -10.36438 -10.34509
 Alpha  occ. eigenvalues --  -10.31424 -10.31377 -10.31014 -10.29835 -10.29652
 Alpha  occ. eigenvalues --  -10.29597 -10.29445 -10.29398 -10.29357 -10.29288
 Alpha  occ. eigenvalues --  -10.29220 -10.29124 -10.29089 -10.29038  -9.57397
 Alpha  occ. eigenvalues --   -7.32020  -7.31183  -7.31180  -1.12184  -1.03469
 Alpha  occ. eigenvalues --   -0.97956  -0.96879  -0.95784  -0.88944  -0.86372
 Alpha  occ. eigenvalues --   -0.85656  -0.85258  -0.83104  -0.78758  -0.75864
 Alpha  occ. eigenvalues --   -0.71512  -0.71050  -0.70536  -0.67780  -0.63722
 Alpha  occ. eigenvalues --   -0.63220  -0.60958  -0.59457  -0.57387  -0.56904
 Alpha  occ. eigenvalues --   -0.55691  -0.55223  -0.54650  -0.53830  -0.53128
 Alpha  occ. eigenvalues --   -0.52218  -0.51411  -0.51098  -0.50332  -0.48431
 Alpha  occ. eigenvalues --   -0.47697  -0.47253  -0.46656  -0.45960  -0.44437
 Alpha  occ. eigenvalues --   -0.43939  -0.43556  -0.43150  -0.42460  -0.40831
 Alpha  occ. eigenvalues --   -0.39797  -0.34791  -0.34247  -0.33870  -0.33483
 Alpha  occ. eigenvalues --   -0.32072  -0.27754
 Alpha virt. eigenvalues --    0.01072   0.04619   0.04839   0.05294   0.07755
 Alpha virt. eigenvalues --    0.10052   0.12078   0.12755   0.13508   0.14260
 Alpha virt. eigenvalues --    0.14733   0.15406   0.16298   0.16708   0.17296

 Mulliken charges:
               1
     1  C   -0.183478
     2  C    0.265360
     3  O   -0.505456
     4  C   -0.063584
     5  C   -0.260034
     6  H    0.133489
     7  H    0.149695
     8  H    0.157655
     9  N   -0.349298
    10  H    0.277047
    11  H    0.286042
    12  C    0.302423
    13  C   -0.237337
    14  C   -0.130522
    15  C   -0.153998
    16  C   -0.131530
    17  C   -0.316611
    18  H    0.144520
    19  H    0.146095
    20  H    0.147168
    21  H    0.146228
    22  H    0.165279
    23  H    0.162537
    24  Cl  -0.148687
    25  C    0.203825
    26  C   -0.251054
    27  C   -0.147113
    28  C   -0.146170
    29  C   -0.134001
    30  C   -0.260505
    31  H    0.141346
    32  H    0.143052
    33  H    0.145033
    34  H    0.143256
    35  H    0.159329
 Sum of Mulliken charges =  -0.00000

 Dipole moment (field-independent basis, Debye):
    X=              6.0858    Y=              4.3253    Z=             -3.2746  Tot=              8.1528
 Quadrupole moment (field-independent basis, Debye-Ang):
   XX=            -98.4945   YY=           -106.7685   ZZ=           -117.7747
   XY=              9.8911   XZ=              5.9640   YZ=            -10.1985

  Exact polarizability: 372.667   5.426 238.965  -0.097 -10.934 283.407
 Approx polarizability: 268.880   2.099 201.642   2.173  -6.772 250.447

 ******    1 imaginary frequencies (negative Signs) ******

                      1                      2                      3
                      A                      A                      A
 Frequencies --   -326.2833                18.6562                28.3713
 Red. masses --      5.9661                 2.7175                 3.7387
 Frc consts  --      0.3742                 0.0006                 0.0018
 IR Inten    --    821.8130                 5.1113                 1.7192

                      4                      5                      6
                      A                      A                      A
 Frequencies --     37.3012                48.8385                54.7218
 Red. masses --      2.9943                 5.8412                 3.9168
 Frc consts  --      0.0025                 0.0082                 0.0069
 IR Inten    --      2.9995                 2.2835                 2.2571

                      7                      8                      9
                      A                      A                      A
 Frequencies --     68.3306                86.2093               110.6560
 Red. masses --      4.2937                 2.7448                 4.3906
 Frc consts  --      0.0118                 0.0120                 0.0317
 IR Inten    --      2.5395                 9.8505                 6.0503

                     10                     11                     12
                      A                      A                      A
 Frequencies --    134.4454               154.6793               202.1457
 Red. masses --      2.8085                 2.6888                 5.6314
 Frc consts  --      0.0299                 0.0379                 0.1356
 IR Inten    --      4.2365                 2.1853                 4.4834

                     13                     14                     15
                      A                      A                      A
 Frequencies --    216.1694               234.2205               250.3297
 Red. masses --      6.5933                 6.8963                 4.9791
 Frc consts  --      0.1815                 0.2229                 0.1838
 IR Inten    --     11.5443                 3.7901                 6.9412

                     16                     17                     18
                      A                      A                      A
 Frequencies --    292.0092               318.3476               367.3271
 Red. masses --      2.6630                 5.2583                 7.4639
 Frc consts  --      0.1338                 0.3140                 0.5934
 IR Inten    --     27.5097                 9.9925                17.1736

                     19                     20                     21
                      A                      A                      A
 Frequencies --    412.7129               416.5749               419.4215
 Red. masses --      5.4643                 2.9075                 2.8852
 Frc consts  --      0.5484                 0.2973                 0.2990
 IR Inten    --     14.3163                 0.6892                 1.6504

                     22                     23                     24
                      A                      A                      A
 Frequencies --    467.9169               542.3203               556.2557
 Red. masses --      5.5327                 1.9561                 4.9064
 Frc consts  --      0.7137                 0.3390                 0.8945
 IR Inten    --     15.5888                88.5166                56.2964

                     25                     26                     27
                      A                      A                      A
 Frequencies --    598.9274               604.9842               635.7883
 Red. masses --      2.7361                 4.0798                 6.0938
 Frc consts  --      0.5783                 0.8798                 1.4513
 IR Inten    --     56.0999                48.4924                 1.4754

                     28                     29                     30
                      A                      A                      A
 Frequencies --    636.2543               684.6765               720.9444
 Red. masses --      6.2451                 5.5715                 1.5954
 Frc consts  --      1.4895                 1.5388                 0.4886
 IR Inten    --      0.0615                20.2260                96.2475

                     31                     32                     33
                      A                      A                      A
 Frequencies --    725.2568               733.1668               759.3998
 Red. masses --      1.5600                 3.6218                 4.0016
 Frc consts  --      0.4835                 1.1470                 1.3597
 IR Inten    --     92.9513                17.1737                69.8291

                     34                     35                     36
                      A                      A                      A
 Frequencies --    798.2591               813.6731               824.6452
 Red. masses --      2.1362                 4.1241                 3.4385
 Frc consts  --      0.8020                 1.6087                 1.3777
 IR Inten    --      9.6879                22.3429                 8.8813

                     37                     38                     39
                      A                      A                      A
 Frequencies --    872.6573               879.1594               931.1972
 Red. masses --      1.2511                 1.2482                 3.7656
 Frc consts  --      0.5613                 0.5684                 1.9238
 IR Inten    --      0.3451                 0.3817                35.9412

                     40                     41                     42
                      A                      A                      A
 Frequencies --    957.5894               962.6341              1001.4397
 Red. masses --      1.4520                 1.5545                 1.0744
 Frc consts  --      0.7844                 0.8487                 0.6348
 IR Inten    --      5.2460                 0.2716                36.0959

                     43                     44                     45
                      A                      A                      A
 Frequencies --   1008.3278              1010.9732              1017.2940
 Red. masses --      1.3102                 1.3811                 1.2238
 Frc consts  --      0.7848                 0.8317                 0.7462
 IR Inten    --     29.9952                 1.1510                76.0331

                     46                     47                     48
                      A                      A                      A
 Frequencies --   1026.1503              1026.8888              1029.3245
 Red. masses --      5.6310                 5.1463                 1.3337
 Frc consts  --      3.4935                 3.1974                 0.8325
 IR Inten    --      1.7938                 5.1705                 0.3466

                     49                     50                     51
                      A                      A                      A
 Frequencies --   1032.6366              1060.1913              1063.7954
 Red. masses --      1.3251                 2.2829                 2.1430
 Frc consts  --      0.8325                 1.5118                 1.4288
 IR Inten    --      1.6770                25.2680                 9.0722

                     52                     53                     54
                      A                      A                      A
 Frequencies --   1082.4433              1111.5973              1115.1462
 Red. masses --      4.4238                 1.5840                 1.5981
 Frc consts  --      3.0539                 1.1532                 1.1709
 IR Inten    --     37.3104                24.9871                 3.6974

                     55                     56                     57
                      A                      A                      A
 Frequencies --   1148.9135              1160.6907              1184.3296
 Red. masses --      1.1456                 3.4508                 1.1391
 Frc consts  --      0.8910                 2.7390                 0.9414
 IR Inten    --    108.1709                39.6412                 0.1149

                     58                     59                     60
                      A                      A                      A
 Frequencies --   1185.6650              1206.7415              1208.5748
 Red. masses --      1.1312                 1.4026                 1.1488
 Frc consts  --      0.9369                 1.2034                 0.9886
 IR Inten    --      1.4502                39.2551                 4.4130

                     61                     62                     63
                      A                      A                      A
 Frequencies --   1213.0136              1218.9139              1270.9262
 Red. masses --      1.2159                 2.8403                 1.5733
 Frc consts  --      1.0541                 2.4863                 1.4972
 IR Inten    --     24.5205                80.1211               171.2103

                     64                     65                     66
                      A                      A                      A
 Frequencies --   1319.9331              1333.9465              1341.5822
 Red. masses --      4.3838                 4.1281                 1.4033
 Frc consts  --      4.4999                 4.3279                 1.4882
 IR Inten    --     58.1337                37.3758                22.2934

                     67                     68                     69
                      A                      A                      A
 Frequencies --   1346.8459              1361.0121              1367.1447
 Red. masses --      4.0867                 1.4579                 1.4994
 Frc consts  --      4.3677                 1.5912                 1.6512
 IR Inten    --    403.9060                 5.9631               192.2762

                     70                     71                     72
                      A                      A                      A
 Frequencies --   1450.1992              1470.3632              1480.5306
 Red. masses --      1.8845                 1.5217                 1.0423
 Frc consts  --      2.3351                 1.9383                 1.3461
 IR Inten    --    567.9374               254.3655                19.4017

                     73                     74                     75
                      A                      A                      A
 Frequencies --   1488.8368              1504.2199              1509.4604
 Red. masses --      2.2306                 2.2236                 1.0639
 Frc consts  --      2.9132                 2.9644                 1.4282
 IR Inten    --     27.6942               139.7812                46.7002

                     76                     77                     78
                      A                      A                      A
 Frequencies --   1542.2370              1548.6575              1629.5668
 Red. masses --      2.3346                 2.4867                 9.8324
 Frc consts  --      3.2716                 3.5139                15.3835
 IR Inten    --      6.5301                16.3364               359.9030

                     79                     80                     81
                      A                      A                      A
 Frequencies --   1644.2301              1652.0695              1655.3754
 Red. masses --      1.0994                 5.7346                 5.9430
 Frc consts  --      1.7512                 9.2217                 9.5950
 IR Inten    --     54.9934                19.5256                26.1531

                     82                     83                     84
                      A                      A                      A
 Frequencies --   1674.9960              1677.1413              3066.0861
 Red. masses --      5.8683                 5.8764                 1.0337
 Frc consts  --      9.7005                 9.7386                 5.7257
 IR Inten    --      2.5217                 0.1726                34.4868

                     85                     86                     87
                      A                      A                      A
 Frequencies --   3137.2052              3171.1012              3187.2189
 Red. masses --      1.1040                 1.1046                 1.0877
 Frc consts  --      6.4019                 6.5445                 6.5099
 IR Inten    --     13.1659                11.5867                 4.1472

                     88                     89                     90
                      A                      A                      A
 Frequencies --   3192.7671              3194.4692              3197.8031
 Red. masses --      1.0857                 1.0872                 1.0880
 Frc consts  --      6.5209                 6.5364                 6.5551
 IR Inten    --      2.2674                 3.0638                 0.4681

                     91                     92                     93
                      A                      A                      A
 Frequencies --   3200.8228              3205.1974              3210.0621
 Red. masses --      1.0883                 1.0917                 1.0919
 Frc consts  --      6.5694                 6.6081                 6.6293
 IR Inten    --      0.3070                11.4322                19.1054

                     94                     95                     96
                      A                      A                      A
 Frequencies --   3212.7730              3219.0073              3221.7770
 Red. masses --      1.0953                 1.0949                 1.0989
 Frc consts  --      6.6613                 6.6848                 6.7207
 IR Inten    --     39.5604                26.4545                18.8660

                     97                     98                     99
                      A                      A                      A
 Frequencies --   3225.9134              3534.7920              3617.2569
 Red. masses --      1.0984                 1.0505                 1.0963
 Frc consts  --      6.7346                 7.7332                 8.4515
 IR Inten    --     10.9828                53.6402                41.9939

 - Thermochemistry -
 -------------------
 Temperature   298.150 Kelvin.  Pressure   1.00000 Atm.
 Atom     1 has atomic number  6 and mass  12.00000

 Molecular mass:   273.09204 amu.
 Principal axes and moments of inertia in atomic units:
                           1         2         3
     Eigenvalues --  2491.57437********************
           X            0.99999   0.00283   0.00195
           Y           -0.00255   0.99136  -0.13115
           Z           -0.00231   0.13114   0.99136
 This molecule is an asymmetric top.
 Rotational symmetry number  1.
 Warning -- assumption of classical behavior for rotation
           may cause significant error
 Rotational temperatures (Kelvin)      0.03476     0.00865     0.00835
 Rotational constants (GHZ):           0.72434     0.18018     0.17406
    1 imaginary frequencies ignored.
 Zero-point vibrational energy     746193.1 (Joules/Mol)
                                  178.34444 (Kcal/Mol)
 Warning -- explicit consideration of  25 degrees of freedom as
           vibrations may cause significant error
 Vibrational temperatures:     26.84    40.82    53.67    70.27    78.73
          (Kelvin)             98.31   124.04   159.21   193.44   222.55
                              290.84   311.02   336.99   360.17   420.14
                              458.03   528.50   593.80   599.36   603.45
                              673.23   780.28   800.33   861.72   870.44
                              914.76   915.43   985.10  1037.28  1043.48
                             1054.86  1092.61  1148.52  1170.69  1186.48
                             1255.56  1264.91  1339.79  1377.76  1385.02
                             1440.85  1450.76  1454.57  1463.66  1476.40
                             1477.46  1480.97  1485.73  1525.38  1530.56
                             1557.39  1599.34  1604.45  1653.03  1669.98
                             1703.99  1705.91  1736.23  1738.87  1745.26
                             1753.75  1828.58  1899.09  1919.25  1930.24
                             1937.81  1958.19  1967.02  2086.51  2115.52
                             2130.15  2142.10  2164.24  2171.78  2218.94
                             2228.17  2344.58  2365.68  2376.96  2381.72
                             2409.95  2413.03  4411.41  4513.74  4562.51
                             4585.70  4593.68  4596.13  4600.93  4605.27
                             4611.56  4618.56  4622.46  4631.43  4635.42
                             4641.37  5085.78  5204.43

 Zero-point correction=                           0.284210 (Hartree/Particle)
 Thermal correction to Energy=                    0.301962
 Thermal correction to Enthalpy=                  0.302907
 Thermal correction to Gibbs Free Energy=         0.234952
 Sum of electronic and zero-point Energies=          -1209.222865
 Sum of electronic and thermal Energies=             -1209.205112
 Sum of electronic and thermal Enthalpies=           -1209.204168
 Sum of electronic and thermal Free Energies=        -1209.272122

                     E (Thermal)             CV                S
                      KCal/Mol        Cal/Mol-Kelvin    Cal/Mol-Kelvin
 Total                  189.484             65.483            143.022
 Electronic               0.000              0.000              0.000
 Translational            0.889              2.981             42.713
 Rotational               0.889              2.981             33.914
 Vibrational            187.707             59.521             66.395
 Vibration     1          0.593              1.986              6.772
 Vibration     2          0.593              1.984              5.940
 Vibration     3          0.594              1.982              5.397
 Vibration     4          0.595              1.978              4.864
 Vibration     5          0.596              1.976              4.639
 Vibration     6          0.598              1.969              4.201
 Vibration     7          0.601              1.959              3.744
 Vibration     8          0.606              1.941              3.257
 Vibration     9          0.613              1.919              2.881
 Vibration    10          0.620              1.897              2.614
 Vibration    11          0.639              1.837              2.113
 Vibration    12          0.645              1.816              1.991
 Vibration    13          0.654              1.789              1.846
 Vibration    14          0.663              1.762              1.728
 Vibration    15          0.687              1.689              1.462
 Vibration    16          0.705              1.639              1.319
 Vibration    17          0.740              1.539              1.091
 Vibration    18          0.776              1.443              0.917
 Vibration    19          0.780              1.434              0.904
 Vibration    20          0.782              1.428              0.894
 Vibration    21          0.825              1.321              0.743
 Vibration    22          0.897              1.157              0.560
 Vibration    23          0.912              1.126              0.531
 Vibration    24          0.957              1.034              0.452
 Vibration    25          0.964              1.021              0.441

 Optimization completed.
    -- Stationary point found.
 Normal termination of Gaussian 16 at Sun Jun 13 11:44:55 2021.
