 Gaussian 16, Revision A.03,
 Gaussian 16:  ES64L-G16RevA.03 25-Dec-2016

 ----------------------------------------------------------------------
 # wB97XD def2tzvp, opt=(ts, noeigen, calcfc, maxcycles=70, maxstep=8),
  freq=noraman, scrf=(iefpcm, solvent=water)
 ----------------------------------------------------------------------

 ------------------------
 1_iteration/TS-850-1.out
 ------------------------
 Symbolic Z-matrix:
 Charge =  0 Multiplicity = 1

 SCF Done:  E(RwB97XD) =  -786.717567248     A.U. after   15 cycles
 SCF Done:  E(RwB97XD) =  -786.717567274     A.U. after    6 cycles
 Optimization completed.
    -- Stationary point found.
 Normal termination of Gaussian 16 at Thu Feb 25 10:10:20 2021.

 ---------------------------------------------------------------------
 #N Geom=AllCheck Guess=TCheck SCRF=Check GenChk RwB97XD/def2TZVP Freq
 ---------------------------------------------------------------------

 Structure from the checkpoint file:  "/beegfs/scratch/user/q/tla25/Gau-96151.chk"
 ------------------------
 1_iteration/TS-850-1.out
 ------------------------
 Charge =  0 Multiplicity = 1

                         Standard orientation:
 ---------------------------------------------------------------------
 Center     Atomic      Atomic             Coordinates (Angstroms)
 Number     Number       Type             X           Y           Z
 ---------------------------------------------------------------------
      1          6           0       -0.848454   -0.683286   -0.372707
      2          6           0       -2.094068   -0.047254   -0.094792
      3          8           0       -3.135843   -0.360777   -0.684477
      4          6           0        0.334135   -0.319138    0.241149
      5          6           0        2.351231    1.739568   -0.035214
      6          1           0        2.772839    2.546725   -0.634742
      7          1           0        1.970925    2.152308    0.898223
      8          1           0        3.131768    1.015266    0.188176
      9          7           0        1.259737    1.062067   -0.732769
     10          1           0        0.510932    1.702094   -0.971967
     11          1           0        1.571467    0.619250   -1.590199
     12         17           0        1.636548   -1.512366    0.280203
     13          1           0        0.323269    0.256245    1.157536
     14          1           0       -0.834909   -1.439919   -1.147106
     15          6           0       -2.155362    1.038722    0.967647
     16          1           0       -1.817719    0.664202    1.936029
     17          1           0       -1.523621    1.890344    0.706585
     18          1           0       -3.182563    1.383767    1.062702
 ---------------------------------------------------------------------

 SCF Done:  E(RwB97XD) =  -786.717567274     A.U. after    1 cycles

 The electronic state is 1-A.
 Alpha  occ. eigenvalues -- -101.70197 -19.20294 -14.48730 -10.39198 -10.35299
 Alpha  occ. eigenvalues --  -10.32017 -10.27361 -10.25346  -9.58783  -7.33417
 Alpha  occ. eigenvalues --   -7.32574  -7.32533  -1.10883  -1.04372  -0.97165
 Alpha  occ. eigenvalues --   -0.87100  -0.81138  -0.78992  -0.71409  -0.63806
 Alpha  occ. eigenvalues --   -0.62306  -0.57234  -0.55777  -0.54760  -0.53917
 Alpha  occ. eigenvalues --   -0.51575  -0.49582  -0.48257  -0.47364  -0.46886
 Alpha  occ. eigenvalues --   -0.45301  -0.43064  -0.40327  -0.39136  -0.32067
 Alpha  occ. eigenvalues --   -0.28305
 Alpha virt. eigenvalues --    0.04352   0.08849   0.10497   0.13560   0.14160
 Alpha virt. eigenvalues --    0.14948   0.15977   0.17284   0.18743   0.19207
 Alpha virt. eigenvalues --    0.19546   0.20664   0.21682   0.23617   0.24636

 Mulliken charges:
               1
     1  C   -0.366935
     2  C    0.263203
     3  O   -0.522114
     4  C   -0.007597
     5  C   -0.269801
     6  H    0.155531
     7  H    0.152104
     8  H    0.148847
     9  N   -0.321865
    10  H    0.277950
    11  H    0.283329
    12  Cl  -0.117438
    13  H    0.188063
    14  H    0.123937
    15  C   -0.394860
    16  H    0.147206
    17  H    0.135233
    18  H    0.125206
 Sum of Mulliken charges =  -0.00000

 Dipole moment (field-independent basis, Debye):
    X=              8.8572    Y=              6.2325    Z=              0.6237  Tot=             10.8482
 Quadrupole moment (field-independent basis, Debye-Ang):
   XX=            -73.7385   YY=            -52.6965   ZZ=            -53.5275
   XY=              1.1822   XZ=             -9.6775   YZ=             -1.4024

  Exact polarizability: 176.313   7.385 114.136   5.727   2.720  93.902
 Approx polarizability: 129.864   4.243  94.154   6.115   1.611  82.695

 ******    1 imaginary frequencies (negative Signs) ******

                      1                      2                      3
                      A                      A                      A
 Frequencies --   -367.0109                47.1965                79.8937
 Red. masses --      6.2958                 2.3467                 2.2260
 Frc consts  --      0.4996                 0.0031                 0.0084
 IR Inten    --   1001.5885                 2.3693                 5.3526

                      4                      5                      6
                      A                      A                      A
 Frequencies --     92.1712               103.8165               160.1842
 Red. masses --      2.4518                 1.4323                 1.6948
 Frc consts  --      0.0123                 0.0091                 0.0256
 IR Inten    --      4.0058                 0.6353                 5.6071

                      7                      8                      9
                      A                      A                      A
 Frequencies --    181.1314               197.1362               293.9915
 Red. masses --      3.1745                 2.3572                 4.2098
 Frc consts  --      0.0614                 0.0540                 0.2144
 IR Inten    --      4.3437                 1.5453                 2.3770

                     10                     11                     12
                      A                      A                      A
 Frequencies --    332.4243               434.9617               498.6879
 Red. masses --      4.0564                 4.3655                 3.5541
 Frc consts  --      0.2641                 0.4866                 0.5208
 IR Inten    --     13.2531               177.8092                 1.8338

                     13                     14                     15
                      A                      A                      A
 Frequencies --    565.6316               585.1943               654.9506
 Red. masses --      3.7264                 1.9467                 1.4624
 Frc consts  --      0.7024                 0.3928                 0.3696
 IR Inten    --     40.9341                 3.5692                10.2832

                     16                     17                     18
                      A                      A                      A
 Frequencies --    762.2501               817.7940               840.7039
 Red. masses --      1.4237                 3.5209                 3.5240
 Frc consts  --      0.4874                 1.3874                 1.4675
 IR Inten    --    158.8219               234.0739                 8.5685

                     19                     20                     21
                      A                      A                      A
 Frequencies --   1005.3364              1015.4097              1033.1165
 Red. masses --      1.1096                 1.4964                 1.1940
 Frc consts  --      0.6607                 0.9090                 0.7509
 IR Inten    --     12.4798               210.9419                54.4124

                     22                     23                     24
                      A                      A                      A
 Frequencies --   1045.4614              1072.6532              1160.5473
 Red. masses --      1.7074                 4.1395                 1.1043
 Frc consts  --      1.0995                 2.8062                 0.8763
 IR Inten    --      6.1567               129.9218               104.3290

                     25                     26                     27
                      A                      A                      A
 Frequencies --   1224.7967              1239.2278              1273.8905
 Red. masses --      1.4188                 1.2138                 1.3676
 Frc consts  --      1.2540                 1.0982                 1.3076
 IR Inten    --     18.2495               148.4350               128.4270

                     28                     29                     30
                      A                      A                      A
 Frequencies --   1324.0121              1340.2413              1396.6713
 Red. masses --      3.3313                 1.3251                 1.5156
 Frc consts  --      3.4407                 1.4024                 1.7419
 IR Inten    --    125.0943                 0.1574                83.0448

                     31                     32                     33
                      A                      A                      A
 Frequencies --   1459.4446              1467.4682              1481.6935
 Red. masses --      1.2633                 1.0758                 1.0470
 Frc consts  --      1.5854                 1.3650                 1.3542
 IR Inten    --    138.3095                24.4818                16.0639

                     34                     35                     36
                      A                      A                      A
 Frequencies --   1486.0804              1491.0620              1506.5279
 Red. masses --      2.6804                 1.0400                 1.0516
 Frc consts  --      3.4876                 1.3624                 1.4062
 IR Inten    --    879.5701                16.9309                12.7005

                     37                     38                     39
                      A                      A                      A
 Frequencies --   1641.3423              1646.6440              3057.3225
 Red. masses --      1.1634                 5.6020                 1.0378
 Frc consts  --      1.8466                 8.9494                 5.7152
 IR Inten    --    212.1415               838.1926                 9.2059

                     40                     41                     42
                      A                      A                      A
 Frequencies --   3069.2287              3124.5846              3146.5546
 Red. masses --      1.0338                 1.1005                 1.1051
 Frc consts  --      5.7380                 6.3306                 6.4463
 IR Inten    --     44.8720                19.0860                15.3515

                     43                     44                     45
                      A                      A                      A
 Frequencies --   3163.0098              3169.8005              3200.2147
 Red. masses --      1.1021                 1.1052                 1.0927
 Frc consts  --      6.4966                 6.5427                 6.5934
 IR Inten    --     27.1064                11.6657                 2.6449

                     46                     47                     48
                      A                      A                      A
 Frequencies --   3205.7235              3518.8526              3603.0799
 Red. masses --      1.0887                 1.0509                 1.0968
 Frc consts  --      6.5921                 7.6666                 8.3893
 IR Inten    --      8.6605                24.5770                45.6129

 - Thermochemistry -
 -------------------
 Temperature   298.150 Kelvin.  Pressure   1.00000 Atm.
 Atom     1 has atomic number  6 and mass  12.00000

 Molecular mass:   135.04509 amu.
 Principal axes and moments of inertia in atomic units:
                           1         2         3
     Eigenvalues --   786.565751940.630782413.00698
           X            0.99913   0.03672  -0.01993
           Y           -0.03607   0.99885   0.03168
           Z            0.02107  -0.03093   0.99930
 This molecule is an asymmetric top.
 Rotational symmetry number  1.
 Warning -- assumption of classical behavior for rotation
           may cause significant error
 Rotational temperatures (Kelvin)      0.11012     0.04463     0.03589
 Rotational constants (GHZ):           2.29446     0.92998     0.74792
    1 imaginary frequencies ignored.
 Zero-point vibrational energy     390091.0 (Joules/Mol)
                                   93.23398 (Kcal/Mol)
 Warning -- explicit consideration of  13 degrees of freedom as
           vibrations may cause significant error
 Vibrational temperatures:     67.91   114.95   132.61   149.37   230.47
          (Kelvin)            260.61   283.64   422.99   478.28   625.81
                              717.50   813.82   841.96   942.33  1096.71
                             1176.62  1209.59  1446.45  1460.95  1486.42
                             1504.19  1543.31  1669.77  1762.21  1782.97
                             1832.84  1904.96  1928.31  2009.50  2099.82
                             2111.36  2131.83  2138.14  2145.31  2167.56
                             2361.53  2369.15  4398.81  4415.94  4495.58
                             4527.19  4550.87  4560.64  4604.40  4612.32
                             5062.84  5184.03

 Zero-point correction=                           0.148578 (Hartree/Particle)
 Thermal correction to Energy=                    0.158594
 Thermal correction to Enthalpy=                  0.159538
 Thermal correction to Gibbs Free Energy=         0.112011
 Sum of electronic and zero-point Energies=           -786.568989
 Sum of electronic and thermal Energies=              -786.558973
 Sum of electronic and thermal Enthalpies=            -786.558029
 Sum of electronic and thermal Free Energies=         -786.605556

                     E (Thermal)             CV                S
                      KCal/Mol        Cal/Mol-Kelvin    Cal/Mol-Kelvin
 Total                   99.519             33.772            100.028
 Electronic               0.000              0.000              0.000
 Translational            0.889              2.981             40.614
 Rotational               0.889              2.981             29.689
 Vibrational             97.742             27.810             29.725
 Vibration     1          0.595              1.979              4.932
 Vibration     2          0.600              1.963              3.893
 Vibration     3          0.602              1.955              3.613
 Vibration     4          0.605              1.946              3.381
 Vibration     5          0.622              1.891              2.548
 Vibration     6          0.630              1.865              2.317
 Vibration     7          0.637              1.844              2.160
 Vibration     8          0.689              1.685              1.451
 Vibration     9          0.714              1.611              1.248
 Vibration    10          0.796              1.394              0.843
 Vibration    11          0.854              1.253              0.661
 Vibration    12          0.921              1.106              0.513
 Vibration    13          0.942              1.063              0.476

 Optimization completed.
    -- Stationary point found.
 Normal termination of Gaussian 16 at Thu Feb 25 10:17:20 2021.
