 Gaussian 16, Revision A.03,
 Gaussian 16:  ES64L-G16RevA.03 25-Dec-2016

 ----------------------------------------------------------------------
 # wB97XD def2tzvp, opt=(ts, noeigen, calcfc, maxcycles=70, maxstep=8),
  freq=noraman, scrf=(iefpcm, solvent=water)
 ----------------------------------------------------------------------

 ------------------------
 1_iteration/TS-801-1.out
 ------------------------
 Symbolic Z-matrix:
 Charge =  0 Multiplicity = 1

 SCF Done:  E(RwB97XD) =  -1209.49625414     A.U. after   15 cycles
 SCF Done:  E(RwB97XD) =  -1209.49627317     A.U. after   12 cycles
 SCF Done:  E(RwB97XD) =  -1209.49627763     A.U. after   11 cycles
 SCF Done:  E(RwB97XD) =  -1209.49628031     A.U. after   11 cycles
 SCF Done:  E(RwB97XD) =  -1209.49628101     A.U. after   10 cycles
 SCF Done:  E(RwB97XD) =  -1209.49628112     A.U. after    8 cycles
 SCF Done:  E(RwB97XD) =  -1209.49628113     A.U. after    7 cycles
 Optimization completed on the basis of negligible forces.
    -- Stationary point found.
 Normal termination of Gaussian 16 at Thu Feb 25 22:12:50 2021.

 ---------------------------------------------------------------------
 #N Geom=AllCheck Guess=TCheck SCRF=Check GenChk RwB97XD/def2TZVP Freq
 ---------------------------------------------------------------------

 Structure from the checkpoint file:  "/beegfs/scratch/user/q/tla25/Gau-85448.chk"
 ------------------------
 1_iteration/TS-801-1.out
 ------------------------
 Charge =  0 Multiplicity = 1

                         Standard orientation:
 ---------------------------------------------------------------------
 Center     Atomic      Atomic             Coordinates (Angstroms)
 Number     Number       Type             X           Y           Z
 ---------------------------------------------------------------------
      1          6           0       -0.488559   -0.229423    0.558703
      2          6           0       -0.106326   -0.523217    1.896592
      3          8           0       -0.863725   -0.882249    2.801829
      4          6           0        0.471801    0.230624   -0.351989
      5          6           0        0.507648    2.749927    0.952466
      6          1           0        0.069871    3.746576    0.984906
      7          1           0       -0.005519    2.114266    1.675473
      8          1           0        1.559881    2.806458    1.218914
      9          7           0        0.358813    2.150625   -0.368584
     10          1           0       -0.593362    2.252417   -0.704112
     11          1           0        0.960400    2.577620   -1.064828
     12         17           0        0.042199    0.055937   -2.095732
     13          6           0        1.929969   -0.095513   -0.171326
     14          6           0        2.253720   -1.440426    0.020109
     15          6           0        3.571195   -1.843974    0.144194
     16          6           0        4.595926   -0.911081    0.073748
     17          6           0        4.287052    0.422696   -0.132947
     18          6           0        2.965765    0.826462   -0.262591
     19          1           0        1.459211   -2.172902    0.070850
     20          1           0        3.796275   -2.891626    0.296522
     21          1           0        5.627331   -1.223214    0.174475
     22          1           0        5.075181    1.161638   -0.196429
     23          1           0        2.775851    1.874103   -0.435894
     24          6           0       -1.935803   -0.279463    0.211532
     25          6           0       -2.490052   -1.419537   -0.367279
     26          6           0       -3.839093   -1.476381   -0.682210
     27          6           0       -4.662228   -0.389324   -0.420184
     28          6           0       -4.127773    0.748563    0.165185
     29          6           0       -2.776859    0.798111    0.481298
     30          1           0       -1.849360   -2.267975   -0.576021
     31          1           0       -4.249600   -2.371078   -1.133828
     32          1           0       -5.715537   -0.431406   -0.667432
     33          1           0       -4.762756    1.598916    0.380609
     34          1           0       -2.374908    1.685043    0.958273
     35          1           0        0.969465   -0.414422    2.119614
 ---------------------------------------------------------------------

 SCF Done:  E(RwB97XD) =  -1209.49628113     A.U. after    1 cycles

 The electronic state is 1-A.
 Alpha  occ. eigenvalues -- -101.70067 -19.20860 -14.49865 -10.41482 -10.34651
 Alpha  occ. eigenvalues --  -10.32287 -10.32011 -10.30387 -10.29985 -10.29915
 Alpha  occ. eigenvalues --  -10.29798 -10.29740 -10.29679 -10.28925 -10.28866
 Alpha  occ. eigenvalues --  -10.28843 -10.28788 -10.28623 -10.27171  -9.58663
 Alpha  occ. eigenvalues --   -7.33293  -7.32457  -7.32411  -1.11076  -1.05658
 Alpha  occ. eigenvalues --   -0.99409  -0.96911  -0.95775  -0.89242  -0.87111
 Alpha  occ. eigenvalues --   -0.86133  -0.84907  -0.82610  -0.79831  -0.74591
 Alpha  occ. eigenvalues --   -0.71645  -0.70454  -0.70257  -0.69069  -0.65612
 Alpha  occ. eigenvalues --   -0.63598  -0.61384  -0.59197  -0.58553  -0.57823
 Alpha  occ. eigenvalues --   -0.56981  -0.54938  -0.54593  -0.54314  -0.53438
 Alpha  occ. eigenvalues --   -0.52574  -0.51658  -0.50758  -0.49488  -0.49436
 Alpha  occ. eigenvalues --   -0.48846  -0.47618  -0.46665  -0.46105  -0.45611
 Alpha  occ. eigenvalues --   -0.44782  -0.43526  -0.42747  -0.42616  -0.40453
 Alpha  occ. eigenvalues --   -0.39504  -0.34686  -0.34680  -0.33619  -0.33088
 Alpha  occ. eigenvalues --   -0.31918  -0.28782
 Alpha virt. eigenvalues --    0.02472   0.03262   0.04851   0.05313   0.05457
 Alpha virt. eigenvalues --    0.09538   0.10146   0.12816   0.13072   0.13752
 Alpha virt. eigenvalues --    0.13937   0.15004   0.15167   0.15766   0.17439

 Mulliken charges:
               1
     1  C   -0.229296
     2  C    0.130412
     3  O   -0.504113
     4  C    0.236087
     5  C   -0.311711
     6  H    0.169966
     7  H    0.161991
     8  H    0.163880
     9  N   -0.325743
    10  H    0.286775
    11  H    0.291259
    12  Cl  -0.110089
    13  C    0.183581
    14  C   -0.306958
    15  C   -0.110839
    16  C   -0.146332
    17  C   -0.160168
    18  C   -0.209286
    19  H    0.168537
    20  H    0.148536
    21  H    0.149026
    22  H    0.148043
    23  H    0.143776
    24  C    0.195608
    25  C   -0.253926
    26  C   -0.141326
    27  C   -0.137901
    28  C   -0.161480
    29  C   -0.292708
    30  H    0.141549
    31  H    0.139716
    32  H    0.142861
    33  H    0.140150
    34  H    0.166448
    35  H    0.093673
 Sum of Mulliken charges =  -0.00000

 Dipole moment (field-independent basis, Debye):
    X=              5.0466    Y=              7.4627    Z=             -4.9363  Tot=             10.2727
 Quadrupole moment (field-independent basis, Debye-Ang):
   XX=           -102.3643   YY=            -95.0128   ZZ=           -141.6737
   XY=             -1.6745   XZ=              9.2281   YZ=              6.3266

  Exact polarizability: 344.460   6.064 296.040   4.398  -6.989 242.269
 Approx polarizability: 263.328   4.835 253.319   2.809  -4.874 208.704

 ******    1 imaginary frequencies (negative Signs) ******

                      1                      2                      3
                      A                      A                      A
 Frequencies --   -342.4703                15.7919                29.6851
 Red. masses --      5.2676                 3.5599                 4.4063
 Frc consts  --      0.3640                 0.0005                 0.0023
 IR Inten    --    666.0012                 0.1855                 1.1597

                      4                      5                      6
                      A                      A                      A
 Frequencies --     46.8463                63.4035                92.3535
 Red. masses --      4.7487                 5.7982                 6.3312
 Frc consts  --      0.0061                 0.0137                 0.0318
 IR Inten    --      0.9289                 4.3611                 3.5203

                      7                      8                      9
                      A                      A                      A
 Frequencies --    100.9765               127.1391               147.0277
 Red. masses --      5.6698                 2.9454                 1.2686
 Frc consts  --      0.0341                 0.0281                 0.0162
 IR Inten    --      1.4361                 2.4246                 2.3817

                     10                     11                     12
                      A                      A                      A
 Frequencies --    175.4450               182.1004               213.2432
 Red. masses --      5.5309                 4.1563                 4.3340
 Frc consts  --      0.1003                 0.0812                 0.1161
 IR Inten    --     15.4016                 4.6638                 5.1506

                     13                     14                     15
                      A                      A                      A
 Frequencies --    228.8148               251.2482               264.3823
 Red. masses --      4.0159                 3.2546                 4.8553
 Frc consts  --      0.1239                 0.1210                 0.2000
 IR Inten    --      6.8593                 8.5525                 3.1869

                     16                     17                     18
                      A                      A                      A
 Frequencies --    289.5534               311.5534               333.3422
 Red. masses --      3.7325                 2.8225                 4.1868
 Frc consts  --      0.1844                 0.1614                 0.2741
 IR Inten    --      8.1425                10.1602                37.8862

                     19                     20                     21
                      A                      A                      A
 Frequencies --    384.9919               422.1994               423.4218
 Red. masses --     10.0455                 2.8663                 2.8893
 Frc consts  --      0.8773                 0.3010                 0.3052
 IR Inten    --     11.0873                 0.7139                 0.3788

                     22                     23                     24
                      A                      A                      A
 Frequencies --    490.8647               508.4369               524.6061
 Red. masses --      5.0726                 4.3758                 3.8635
 Frc consts  --      0.7201                 0.6665                 0.6265
 IR Inten    --     36.2716                32.0273                 9.2705

                     25                     26                     27
                      A                      A                      A
 Frequencies --    545.2122               604.4572               635.9252
 Red. masses --      3.9823                 2.6777                 5.0138
 Frc consts  --      0.6975                 0.5764                 1.1946
 IR Inten    --     38.3060                64.2751                 4.6125

                     28                     29                     30
                      A                      A                      A
 Frequencies --    640.5656               671.1817               693.8707
 Red. masses --      5.3747                 5.9705                 2.5688
 Frc consts  --      1.2994                 1.5847                 0.7287
 IR Inten    --      2.7196               104.7695                52.8655

                     31                     32                     33
                      A                      A                      A
 Frequencies --    720.4975               728.6107               732.3237
 Red. masses --      1.7815                 2.6253                 1.7010
 Frc consts  --      0.5449                 0.8211                 0.5375
 IR Inten    --     31.1900                32.0195               334.0429

                     34                     35                     36
                      A                      A                      A
 Frequencies --    771.7349               797.7535               853.7136
 Red. masses --      2.3289                 2.6863                 3.4370
 Frc consts  --      0.8172                 1.0073                 1.4759
 IR Inten    --    129.0394                 3.4484                87.8093

                     37                     38                     39
                      A                      A                      A
 Frequencies --    869.6486               881.3458               901.4516
 Red. masses --      1.2673                 1.2457                 3.5272
 Frc consts  --      0.5647                 0.5701                 1.6887
 IR Inten    --      3.1657                 0.3885                37.3470

                     40                     41                     42
                      A                      A                      A
 Frequencies --    961.9749               962.9542               987.1546
 Red. masses --      1.5227                 1.5444                 1.1067
 Frc consts  --      0.8302                 0.8438                 0.6354
 IR Inten    --      1.7987                 6.4457                45.1231

                     43                     44                     45
                      A                      A                      A
 Frequencies --   1012.1197              1015.0955              1025.6800
 Red. masses --      1.3849                 1.3736                 5.3970
 Frc consts  --      0.8359                 0.8339                 3.3452
 IR Inten    --      0.1395                 0.2862                 3.1057

                     46                     47                     48
                      A                      A                      A
 Frequencies --   1026.4575              1028.6535              1035.5816
 Red. masses --      5.8186                 1.3092                 1.4231
 Frc consts  --      3.6120                 0.8162                 0.8992
 IR Inten    --      0.3582                 0.2491                 0.7836

                     49                     50                     51
                      A                      A                      A
 Frequencies --   1037.0229              1059.7980              1065.5877
 Red. masses --      1.5338                 2.4256                 1.8614
 Frc consts  --      0.9718                 1.6051                 1.2453
 IR Inten    --      0.0741                 5.3357                25.6743

                     52                     53                     54
                      A                      A                      A
 Frequencies --   1071.4882              1078.0372              1110.2838
 Red. masses --      1.2859                 4.8945                 1.5607
 Frc consts  --      0.8698                 3.3514                 1.1335
 IR Inten    --     54.4523                48.4331                17.7357

                     55                     56                     57
                      A                      A                      A
 Frequencies --   1125.3374              1144.4510              1182.5139
 Red. masses --      1.5955                 3.0642                 1.1338
 Frc consts  --      1.1905                 2.3646                 0.9341
 IR Inten    --      8.7153                 1.2430                 0.0274

                     58                     59                     60
                      A                      A                      A
 Frequencies --   1187.5152              1208.6238              1218.3304
 Red. masses --      1.1275                 1.1275                 1.1759
 Frc consts  --      0.9368                 0.9704                 1.0284
 IR Inten    --      0.3322                 0.6650                15.9436

                     61                     62                     63
                      A                      A                      A
 Frequencies --   1222.1927              1235.4240              1309.4828
 Red. masses --      1.7186                 2.2580                 4.5529
 Frc consts  --      1.5126                 2.0305                 4.5998
 IR Inten    --    121.5623                98.3958                10.6039

                     64                     65                     66
                      A                      A                      A
 Frequencies --   1311.6245              1335.5475              1340.1830
 Red. masses --      4.0805                 2.3357                 1.7475
 Frc consts  --      4.1360                 2.4547                 1.8493
 IR Inten    --    259.6870               324.4071               188.2060

                     67                     68                     69
                      A                      A                      A
 Frequencies --   1358.6149              1361.9168              1424.4839
 Red. masses --      1.4357                 1.4339                 2.4115
 Frc consts  --      1.5614                 1.5670                 2.8830
 IR Inten    --      0.4847                14.6190               120.7570

                     70                     71                     72
                      A                      A                      A
 Frequencies --   1451.1139              1480.0972              1486.6596
 Red. masses --      1.1948                 2.0926                 2.1631
 Frc consts  --      1.4823                 2.7010                 2.8167
 IR Inten    --     13.3341                85.7648                 2.3062

                     73                     74                     75
                      A                      A                      A
 Frequencies --   1491.0868              1491.7864              1504.0313
 Red. masses --      2.1501                 1.0754                 1.0440
 Frc consts  --      2.8165                 1.4100                 1.3915
 IR Inten    --     86.3374                 1.9915                14.1727

                     76                     77                     78
                      A                      A                      A
 Frequencies --   1543.1971              1550.4922              1644.1324
 Red. masses --      2.3124                 2.6835                 1.4414
 Frc consts  --      3.2445                 3.8009                 2.2957
 IR Inten    --     28.9738                41.1021               293.1859

                     79                     80                     81
                      A                      A                      A
 Frequencies --   1646.1130              1653.6391              1656.7732
 Red. masses --      5.6910                 2.6133                 6.8415
 Frc consts  --      9.0857                 4.2104                11.0644
 IR Inten    --      5.8341                92.8665               580.6285

                     82                     83                     84
                      A                      A                      A
 Frequencies --   1674.5230              1676.9095              2960.1438
 Red. masses --      5.8928                 5.8858                 1.0823
 Frc consts  --      9.7353                 9.7516                 5.5874
 IR Inten    --      2.8978               136.0795               160.8107

                     85                     86                     87
                      A                      A                      A
 Frequencies --   3071.3060              3146.8748              3177.3105
 Red. masses --      1.0345                 1.1030                 1.1054
 Frc consts  --      5.7493                 6.4354                 6.5747
 IR Inten    --     28.1353                 5.5815                12.3582

                     88                     89                     90
                      A                      A                      A
 Frequencies --   3184.5327              3190.3378              3199.8959
 Red. masses --      1.0876                 1.0872                 1.0908
 Frc consts  --      6.4986                 6.5197                 6.5808
 IR Inten    --     11.6209                 2.4476                10.5158

                     91                     92                     93
                      A                      A                      A
 Frequencies --   3202.3079              3208.0365              3210.7691
 Red. masses --      1.0864                 1.0949                 1.0897
 Frc consts  --      6.5640                 6.6392                 6.6188
 IR Inten    --      0.2283                43.5981                 6.3881

                     94                     95                     96
                      A                      A                      A
 Frequencies --   3219.2063              3219.8685              3227.5401
 Red. masses --      1.0987                 1.0937                 1.0979
 Frc consts  --      6.7085                 6.6807                 6.7385
 IR Inten    --     25.0839                13.3661                16.4620

                     97                     98                     99
                      A                      A                      A
 Frequencies --   3252.0950              3514.5839              3589.1903
 Red. masses --      1.0920                 1.0518                 1.0956
 Frc consts  --      6.8048                 7.6550                 8.3153
 IR Inten    --     18.2920                47.0167                65.9651

 - Thermochemistry -
 -------------------
 Temperature   298.150 Kelvin.  Pressure   1.00000 Atm.
 Atom     1 has atomic number  6 and mass  12.00000

 Molecular mass:   273.09204 amu.
 Principal axes and moments of inertia in atomic units:
                           1         2         3
     Eigenvalues --  2751.340048041.965588172.46718
           X            0.99998  -0.00132   0.00585
           Y           -0.00038   0.95966   0.28115
           Z           -0.00599  -0.28115   0.95965
 This molecule is an asymmetric top.
 Rotational symmetry number  1.
 Warning -- assumption of classical behavior for rotation
           may cause significant error
 Rotational temperatures (Kelvin)      0.03148     0.01077     0.01060
 Rotational constants (GHZ):           0.65595     0.22442     0.22083
    1 imaginary frequencies ignored.
 Zero-point vibrational energy     745539.1 (Joules/Mol)
                                  178.18812 (Kcal/Mol)
 Warning -- explicit consideration of  25 degrees of freedom as
           vibrations may cause significant error
 Vibrational temperatures:     22.72    42.71    67.40    91.22   132.88
          (Kelvin)            145.28   182.92   211.54   252.43   262.00
                              306.81   329.21   361.49   380.39   416.60
                              448.26   479.61   553.92   607.45   609.21
                              706.24   731.53   754.79   784.44   869.68
                              914.95   921.63   965.68   998.33  1036.64
                             1048.31  1053.65  1110.35  1147.79  1228.30
                             1251.23  1268.06  1296.99  1384.07  1385.48
                             1420.30  1456.21  1460.50  1475.72  1476.84
                             1480.00  1489.97  1492.04  1524.81  1533.14
                             1541.63  1551.06  1597.45  1619.11  1646.61
                             1701.37  1708.57  1738.94  1752.91  1758.46
                             1777.50  1884.05  1887.14  1921.55  1928.22
                             1954.74  1959.49  2049.51  2087.83  2129.53
                             2138.97  2145.34  2146.35  2163.97  2220.32
                             2230.81  2365.54  2368.39  2379.22  2383.73
                             2409.27  2412.70  4258.99  4418.92  4527.65
                             4571.44  4581.83  4590.18  4603.94  4607.41
                             4615.65  4619.58  4631.72  4632.67  4643.71
                             4679.04  5056.70  5164.04

 Zero-point correction=                           0.283961 (Hartree/Particle)
 Thermal correction to Energy=                    0.301350
 Thermal correction to Enthalpy=                  0.302294
 Thermal correction to Gibbs Free Energy=         0.236642
 Sum of electronic and zero-point Energies=          -1209.212320
 Sum of electronic and thermal Energies=             -1209.194931
 Sum of electronic and thermal Enthalpies=           -1209.193987
 Sum of electronic and thermal Free Energies=        -1209.259640

                     E (Thermal)             CV                S
                      KCal/Mol        Cal/Mol-Kelvin    Cal/Mol-Kelvin
 Total                  189.100             65.718            138.178
 Electronic               0.000              0.000              0.000
 Translational            0.889              2.981             42.713
 Rotational               0.889              2.981             33.558
 Vibrational            187.323             59.756             61.907
 Vibration     1          0.593              1.986              7.103
 Vibration     2          0.593              1.984              5.850
 Vibration     3          0.595              1.979              4.946
 Vibration     4          0.597              1.972              4.348
 Vibration     5          0.602              1.955              3.610
 Vibration     6          0.604              1.948              3.435
 Vibration     7          0.611              1.926              2.989
 Vibration     8          0.617              1.906              2.710
 Vibration     9          0.627              1.873              2.376
 Vibration    10          0.630              1.864              2.307
 Vibration    11          0.644              1.821              2.016
 Vibration    12          0.651              1.797              1.888
 Vibration    13          0.663              1.761              1.722
 Vibration    14          0.671              1.738              1.633
 Vibration    15          0.686              1.693              1.477
 Vibration    16          0.700              1.652              1.354
 Vibration    17          0.715              1.609              1.244
 Vibration    18          0.754              1.502              1.019
 Vibration    19          0.785              1.422              0.885
 Vibration    20          0.786              1.419              0.880
 Vibration    21          0.847              1.270              0.681
 Vibration    22          0.864              1.231              0.637
 Vibration    23          0.880              1.196              0.599
 Vibration    24          0.900              1.150              0.554
 Vibration    25          0.963              1.022              0.442

 Optimization completed on the basis of negligible forces.
    -- Stationary point found.
 Normal termination of Gaussian 16 at Fri Feb 26 00:12:15 2021.
