 Gaussian 16, Revision A.03,
 Gaussian 16:  ES64L-G16RevA.03 25-Dec-2016

 ----------------------------------------------------------------------
 # wB97XD def2tzvp, opt=(ts, noeigen, calcfc, maxcycles=70, maxstep=8),
  freq=noraman, scrf=(iefpcm, solvent=water)
 ----------------------------------------------------------------------

 -----------------------
 1_iteration/TS-89-1.out
 -----------------------
 Symbolic Z-matrix:
 Charge =  0 Multiplicity = 1

 SCF Done:  E(RwB97XD) =  -558.157013484     A.U. after   15 cycles
 Optimization completed.
    -- Stationary point found.
 Normal termination of Gaussian 16 at Sun Jan 31 07:22:45 2021.

 ---------------------------------------------------------------------
 #N Geom=AllCheck Guess=TCheck SCRF=Check GenChk RwB97XD/def2TZVP Freq
 ---------------------------------------------------------------------

 Structure from the checkpoint file:  "/beegfs/scratch/user/q/tla25/Gau-14715.chk"
 -----------------------
 1_iteration/TS-89-1.out
 -----------------------
 Charge =  0 Multiplicity = 1

                         Standard orientation:
 ---------------------------------------------------------------------
 Center     Atomic      Atomic             Coordinates (Angstroms)
 Number     Number       Type             X           Y           Z
 ---------------------------------------------------------------------
      1          6           0       -1.690910   -0.809630   -0.171790
      2          6           0       -3.056010   -0.863250    0.130370
      3          8           0       -3.874649   -1.695350   -0.303540
      4          6           0       -0.775260    0.159711    0.328350
      5          6           0        0.142829    2.701441   -0.788140
      6          1           0        1.143380    2.277531   -0.850150
      7          1           0        0.005559    3.418601   -1.597500
      8          1           0        0.030809    3.215561    0.163550
      9          7           0       -0.837440    1.616180   -0.872290
     10          1           0       -1.785340    1.961610   -0.764130
     11          1           0       -0.796920    1.155441   -1.774520
     12          6           0        0.679150   -0.211349    0.181740
     13          6           0        1.167640   -0.685349   -1.037400
     14          6           0        2.498431   -1.032839   -1.187650
     15          6           0        3.373960   -0.923888   -0.115130
     16          6           0        2.902480   -0.459568    1.100940
     17          6           0        1.568840   -0.099259    1.245530
     18          1           0        0.504310   -0.781919   -1.888230
     19          1           0        2.853651   -1.389998   -2.145890
     20          1           0        4.414891   -1.197598   -0.230090
     21          1           0        3.572920   -0.370628    1.946330
     22          1           0        1.231120    0.261811    2.206890
     23          6           0       -1.128050    0.904970    1.598730
     24          1           0       -2.128340    1.328790    1.550000
     25          1           0       -1.102690    0.215390    2.442650
     26          1           0       -0.427860    1.713721    1.801620
     27          1           0       -1.319839   -1.550880   -0.870350
     28          1           0       -3.434990   -0.093830    0.830900
 ---------------------------------------------------------------------

 SCF Done:  E(RwB97XD) =  -558.157013484     A.U. after    1 cycles

 The electronic state is 1-A.
 Alpha  occ. eigenvalues --  -19.19033 -14.49200 -10.36029 -10.32982 -10.32039
 Alpha  occ. eigenvalues --  -10.30746 -10.29524 -10.29476 -10.29410 -10.29359
 Alpha  occ. eigenvalues --  -10.29271 -10.28425 -10.24254  -1.08870  -1.04721
 Alpha  occ. eigenvalues --   -0.97546  -0.91744  -0.85727  -0.84637  -0.80610
 Alpha  occ. eigenvalues --   -0.79131  -0.73822  -0.70723  -0.67393  -0.63733
 Alpha  occ. eigenvalues --   -0.62325  -0.61193  -0.58417  -0.56467  -0.55399
 Alpha  occ. eigenvalues --   -0.54789  -0.53311  -0.51820  -0.51231  -0.49629
 Alpha  occ. eigenvalues --   -0.48770  -0.48290  -0.46854  -0.46701  -0.45182
 Alpha  occ. eigenvalues --   -0.44555  -0.43506  -0.42543  -0.41740  -0.34246
 Alpha  occ. eigenvalues --   -0.33929  -0.30943  -0.27123
 Alpha virt. eigenvalues --    0.02390   0.04801   0.08107   0.10223   0.12703
 Alpha virt. eigenvalues --    0.13429   0.13827   0.14850   0.15672   0.16627
 Alpha virt. eigenvalues --    0.17295   0.18233   0.18377   0.18730   0.19287

 Mulliken charges:
               1
     1  C   -0.272046
     2  C    0.087768
     3  O   -0.561091
     4  C    0.138199
     5  C   -0.294519
     6  H    0.161546
     7  H    0.160839
     8  H    0.157717
     9  N   -0.288074
    10  H    0.282673
    11  H    0.279156
    12  C    0.151446
    13  C   -0.289104
    14  C   -0.146126
    15  C   -0.145080
    16  C   -0.143823
    17  C   -0.217236
    18  H    0.161567
    19  H    0.145246
    20  H    0.146220
    21  H    0.144919
    22  H    0.160116
    23  C   -0.445166
    24  H    0.157947
    25  H    0.166143
    26  H    0.151081
    27  H    0.110771
    28  H    0.038910
 Sum of Mulliken charges =  -0.00000

 Dipole moment (field-independent basis, Debye):
    X=              8.3415    Y=              9.8583    Z=             -0.7084  Tot=             12.9333
 Quadrupole moment (field-independent basis, Debye-Ang):
   XX=           -107.3521   YY=            -79.5136   ZZ=            -69.2016
   XY=            -25.2001   XZ=             -3.1191   YZ=             -2.7563

  Exact polarizability: 260.198  18.589 176.951   0.725  10.763 181.490
 Approx polarizability: 191.663   9.323 143.543   2.668  10.369 156.254

 ******    1 imaginary frequencies (negative Signs) ******

                      1                      2                      3
                      A                      A                      A
 Frequencies --   -330.1611                51.4734                61.1470
 Red. masses --      6.2038                 3.7846                 1.9795
 Frc consts  --      0.3984                 0.0059                 0.0044
 IR Inten    --    867.3638                 4.0761                 1.5933

                      4                      5                      6
                      A                      A                      A
 Frequencies --     82.5102                99.0800               143.2807
 Red. masses --      4.2820                 3.1482                 2.7309
 Frc consts  --      0.0172                 0.0182                 0.0330
 IR Inten    --      5.0009                11.2029                 3.1090

                      7                      8                      9
                      A                      A                      A
 Frequencies --    185.9929               209.3008               234.8127
 Red. masses --      1.6402                 1.6613                 3.7603
 Frc consts  --      0.0334                 0.0429                 0.1222
 IR Inten    --      7.0981                 0.4010                11.4583

                     10                     11                     12
                      A                      A                      A
 Frequencies --    272.0102               291.6238               329.0013
 Red. masses --      3.1535                 1.7824                 4.8518
 Frc consts  --      0.1375                 0.0893                 0.3094
 IR Inten    --      6.2844                 0.9690                 4.7776

                     13                     14                     15
                      A                      A                      A
 Frequencies --    353.9368               373.5467               392.1940
 Red. masses --      1.5765                 2.9671                 3.2706
 Frc consts  --      0.1164                 0.2439                 0.2964
 IR Inten    --      1.1980                20.2225                11.1267

                     16                     17                     18
                      A                      A                      A
 Frequencies --    421.6609               460.6013               516.5517
 Red. masses --      2.8764                 3.7392                 3.3133
 Frc consts  --      0.3013                 0.4674                 0.5209
 IR Inten    --      0.6246                77.5643                19.3256

                     19                     20                     21
                      A                      A                      A
 Frequencies --    576.9090               637.0997               648.5166
 Red. masses --      2.9551                 6.1799                 4.1820
 Frc consts  --      0.5795                 1.4779                 1.0363
 IR Inten    --    131.7047                 2.9134                31.2470

                     22                     23                     24
                      A                      A                      A
 Frequencies --    696.9995               727.6037               764.4784
 Red. masses --      1.4376                 1.5555                 1.3408
 Frc consts  --      0.4115                 0.4852                 0.4617
 IR Inten    --     39.3313                64.5540               170.9497

                     25                     26                     27
                      A                      A                      A
 Frequencies --    801.3414               806.2113               877.9149
 Red. masses --      3.1752                 2.1092                 1.2482
 Frc consts  --      1.2013                 0.8077                 0.5668
 IR Inten    --     41.9169                10.0588                 0.2407

                     28                     29                     30
                      A                      A                      A
 Frequencies --    958.1493               962.0114              1015.3576
 Red. masses --      1.9802                 1.6399                 1.3502
 Frc consts  --      1.0711                 0.8942                 0.8201
 IR Inten    --     49.8274                17.1025                 2.4948

                     31                     32                     33
                      A                      A                      A
 Frequencies --   1020.6436              1025.4194              1032.8898
 Red. masses --      1.1882                 5.6400                 1.4948
 Frc consts  --      0.7293                 3.4941                 0.9396
 IR Inten    --     40.9421                 2.5688                 0.5651

                     34                     35                     36
                      A                      A                      A
 Frequencies --   1032.9455              1049.8158              1057.3414
 Red. masses --      1.3676                 2.0277                 1.6808
 Frc consts  --      0.8598                 1.3167                 1.1071
 IR Inten    --      0.1456                33.6778                63.5799

                     37                     38                     39
                      A                      A                      A
 Frequencies --   1065.3699              1083.1736              1106.0815
 Red. masses --      1.6412                 1.9928                 1.7456
 Frc consts  --      1.0975                 1.3775                 1.2582
 IR Inten    --     89.7764                50.0456                32.0318

                     40                     41                     42
                      A                      A                      A
 Frequencies --   1125.3593              1187.5706              1220.5659
 Red. masses --      1.6158                 1.1325                 1.1388
 Frc consts  --      1.2057                 0.9411                 0.9995
 IR Inten    --     12.7479                 0.0873                 0.6222

                     43                     44                     45
                      A                      A                      A
 Frequencies --   1241.3505              1254.8183              1274.1682
 Red. masses --      1.9169                 1.8273                 1.8571
 Frc consts  --      1.7404                 1.6952                 1.7764
 IR Inten    --     49.6919               161.1833               170.1221

                     46                     47                     48
                      A                      A                      A
 Frequencies --   1296.8948              1338.1846              1354.2771
 Red. masses --      3.2934                 2.0318                 1.9479
 Frc consts  --      3.2636                 2.1437                 2.1049
 IR Inten    --    165.3774                 7.8311                43.6985

                     49                     50                     51
                      A                      A                      A
 Frequencies --   1369.2671              1389.4430              1424.8657
 Red. masses --      1.4120                 1.5066                 1.3042
 Frc consts  --      1.5598                 1.7136                 1.5601
 IR Inten    --     18.9258               469.3926                39.7511

                     52                     53                     54
                      A                      A                      A
 Frequencies --   1459.0311              1478.9538              1490.8707
 Red. masses --      1.1980                 1.6538                 1.0865
 Frc consts  --      1.5026                 2.1313                 1.4228
 IR Inten    --      7.6331                42.4771                21.7721

                     55                     56                     57
                      A                      A                      A
 Frequencies --   1494.4364              1502.8413              1504.6034
 Red. masses --      1.8697                 1.0946                 1.0789
 Frc consts  --      2.4602                 1.4566                 1.4390
 IR Inten    --     14.4266                38.5484                16.6046

                     58                     59                     60
                      A                      A                      A
 Frequencies --   1526.9669              1549.0389              1634.4104
 Red. masses --      1.4194                 2.3096                 1.6331
 Frc consts  --      1.9500                 3.2652                 2.5702
 IR Inten    --     12.1863                 8.1092              1088.7937

                     61                     62                     63
                      A                      A                      A
 Frequencies --   1640.7334              1654.2874              1677.4355
 Red. masses --      1.8111                 5.6902                 5.8167
 Frc consts  --      2.8725                 9.1749                 9.6431
 IR Inten    --    607.2231                18.7638                 1.5067

                     64                     65                     66
                      A                      A                      A
 Frequencies --   2917.8317              3074.0215              3078.9691
 Red. masses --      1.0796                 1.0344                 1.0377
 Frc consts  --      5.4153                 5.7588                 5.7960
 IR Inten    --    185.3469                34.8545                18.9477

                     67                     68                     69
                      A                      A                      A
 Frequencies --   3150.2609              3154.1230              3166.2152
 Red. masses --      1.1020                 1.1037                 1.1019
 Frc consts  --      6.4438                 6.4691                 6.5087
 IR Inten    --     22.9365                 7.8908                27.5708

                     70                     71                     72
                      A                      A                      A
 Frequencies --   3175.9228              3182.2799              3195.2271
 Red. masses --      1.1057                 1.0874                 1.0863
 Frc consts  --      6.5711                 6.4879                 6.5346
 IR Inten    --     10.5539                17.5179                 5.7321

                     73                     74                     75
                      A                      A                      A
 Frequencies --   3202.2053              3211.2707              3221.9369
 Red. masses --      1.0884                 1.0929                 1.0964
 Frc consts  --      6.5754                 6.6401                 6.7057
 IR Inten    --      1.7120                25.0936                24.0162

                     76                     77                     78
                      A                      A                      A
 Frequencies --   3231.6617              3516.0834              3595.3463
 Red. masses --      1.0946                 1.0519                 1.0960
 Frc consts  --      6.7356                 7.6621                 8.3469
 IR Inten    --      9.7729                18.9436                40.1297

 - Thermochemistry -
 -------------------
 Temperature   298.150 Kelvin.  Pressure   1.00000 Atm.
 Atom     1 has atomic number  6 and mass  12.00000

 Molecular mass:   177.11536 amu.
 Principal axes and moments of inertia in atomic units:
                           1         2         3
     Eigenvalues --  1517.787723583.813634009.73079
           X            0.99970  -0.02321  -0.00742
           Y            0.02329   0.99967   0.01054
           Z            0.00717  -0.01071   0.99992
 This molecule is an asymmetric top.
 Rotational symmetry number  1.
 Warning -- assumption of classical behavior for rotation
           may cause significant error
 Rotational temperatures (Kelvin)      0.05707     0.02417     0.02160
 Rotational constants (GHZ):           1.18906     0.50358     0.45009
    1 imaginary frequencies ignored.
 Zero-point vibrational energy     631560.8 (Joules/Mol)
                                  150.94666 (Kcal/Mol)
 Warning -- explicit consideration of  18 degrees of freedom as
           vibrations may cause significant error
 Vibrational temperatures:     74.06    87.98   118.71   142.55   206.15
          (Kelvin)            267.60   301.14   337.84   391.36   419.58
                              473.36   509.24   537.45   564.28   606.68
                              662.70   743.20   830.04   916.64   933.07
                             1002.83  1046.86  1099.91  1152.95  1159.96
                             1263.12  1378.56  1384.12  1460.87  1468.48
                             1475.35  1486.10  1486.18  1510.45  1521.28
                             1532.83  1558.45  1591.40  1619.14  1708.65
                             1756.12  1786.03  1805.40  1833.24  1865.94
                             1925.35  1948.50  1970.07  1999.10  2050.06
                             2099.22  2127.88  2145.03  2150.16  2162.25
                             2164.79  2196.96  2228.72  2351.55  2360.65
                             2380.15  2413.46  4198.11  4422.83  4429.95
                             4532.52  4538.08  4555.48  4569.44  4578.59
                             4597.22  4607.26  4620.30  4635.65  4649.64
                             5058.86  5172.90

 Zero-point correction=                           0.240549 (Hartree/Particle)
 Thermal correction to Energy=                    0.253419
 Thermal correction to Enthalpy=                  0.254363
 Thermal correction to Gibbs Free Energy=         0.201063
 Sum of electronic and zero-point Energies=           -557.916465
 Sum of electronic and thermal Energies=              -557.903595
 Sum of electronic and thermal Enthalpies=            -557.902651
 Sum of electronic and thermal Free Energies=         -557.955951

                     E (Thermal)             CV                S
                      KCal/Mol        Cal/Mol-Kelvin    Cal/Mol-Kelvin
 Total                  159.023             48.703            112.180
 Electronic               0.000              0.000              0.000
 Translational            0.889              2.981             41.422
 Rotational               0.889              2.981             31.456
 Vibrational            157.245             42.742             39.302
 Vibration     1          0.596              1.977              4.760
 Vibration     2          0.597              1.973              4.420
 Vibration     3          0.600              1.961              3.830
 Vibration     4          0.604              1.950              3.472
 Vibration     5          0.616              1.910              2.760
 Vibration     6          0.632              1.859              2.267
 Vibration     7          0.642              1.827              2.050
 Vibration     8          0.655              1.788              1.842
 Vibration     9          0.675              1.725              1.583
 Vibration    10          0.687              1.689              1.465
 Vibration    11          0.712              1.618              1.265
 Vibration    12          0.730              1.567              1.149
 Vibration    13          0.745              1.526              1.065
 Vibration    14          0.760              1.487              0.992
 Vibration    15          0.784              1.423              0.886
 Vibration    16          0.818              1.337              0.764
 Vibration    17          0.872              1.213              0.618
 Vibration    18          0.933              1.081              0.491

 Optimization completed.
    -- Stationary point found.
 Normal termination of Gaussian 16 at Sun Jan 31 08:05:09 2021.
