 Gaussian 16, Revision A.03,
 Gaussian 16:  ES64L-G16RevA.03 25-Dec-2016

 ----------------------------------------------------------------------
 # wB97XD def2tzvp, opt=(ts, noeigen, calcfc, maxcycles=70, maxstep=3),
  freq=noraman, scrf=(iefpcm, solvent=water)
 ----------------------------------------------------------------------

 ------------------------
 0_iteration/TS-881-0.out
 ------------------------
 Symbolic Z-matrix:
 Charge =  0 Multiplicity = 1

 SCF Done:  E(RwB97XD) =  -1017.76629229     A.U. after   15 cycles
 SCF Done:  E(RwB97XD) =  -1017.76629215     A.U. after    7 cycles
 Optimization completed.
    -- Stationary point found.
 Normal termination of Gaussian 16 at Thu Mar 25 23:31:15 2021.

 ---------------------------------------------------------------------
 #N Geom=AllCheck Guess=TCheck SCRF=Check GenChk RwB97XD/def2TZVP Freq
 ---------------------------------------------------------------------

 Structure from the checkpoint file:  "/beegfs/scratch/user/q/tla25/Gau-7000.chk"
 ------------------------
 0_iteration/TS-881-0.out
 ------------------------
 Charge =  0 Multiplicity = 1

                         Standard orientation:
 ---------------------------------------------------------------------
 Center     Atomic      Atomic             Coordinates (Angstroms)
 Number     Number       Type             X           Y           Z
 ---------------------------------------------------------------------
      1          6           0       -0.209417    0.951979   -0.101393
      2          6           0       -0.245492    2.340333    0.188484
      3          8           0        0.724431    3.041831    0.492807
      4          6           0       -1.394756    0.269438   -0.399687
      5          6           0       -3.147638   -1.469856    1.300913
      6          1           0       -3.215929   -2.012692    2.244525
      7          1           0       -4.014372   -0.820154    1.204168
      8          1           0       -3.141307   -2.184546    0.479636
      9          7           0       -1.928402   -0.664300    1.237445
     10          1           0       -1.940589    0.089640    1.915658
     11          1           0       -1.107563   -1.229478    1.426034
     12         17           0       -1.212582   -1.192310   -1.413083
     13          6           0       -2.692908    0.964029   -0.709207
     14          1           0       -2.976089    1.649044    0.087629
     15          1           0       -2.589541    1.526269   -1.637097
     16          1           0       -3.490900    0.237718   -0.841066
     17          6           0        1.097852    0.244217    0.003954
     18          6           0        1.552153   -0.235823    1.230961
     19          6           0        2.773629   -0.887163    1.338778
     20          6           0        3.568515   -1.061675    0.216028
     21          6           0        3.136429   -0.575994   -1.010918
     22          6           0        1.914550    0.071613   -1.112407
     23          1           0        0.948350   -0.085126    2.118758
     24          1           0        3.104856   -1.254455    2.302223
     25          1           0        4.521701   -1.569022    0.296387
     26          1           0        3.753872   -0.702110   -1.891780
     27          1           0        1.580519    0.447002   -2.072147
     28          1           0       -1.233261    2.826041    0.111871
 ---------------------------------------------------------------------

 SCF Done:  E(RwB97XD) =  -1017.76629215     A.U. after    1 cycles

 The electronic state is 1-A.
 Alpha  occ. eigenvalues -- -101.69906 -19.20688 -14.48699 -10.41020 -10.34513
 Alpha  occ. eigenvalues --  -10.31968 -10.29796 -10.29460 -10.28844 -10.28794
 Alpha  occ. eigenvalues --  -10.28727 -10.28713 -10.28541 -10.26848  -9.58513
 Alpha  occ. eigenvalues --   -7.33133  -7.32317  -7.32259  -1.10854  -1.04493
 Alpha  occ. eigenvalues --   -0.98268  -0.96077  -0.88923  -0.85716  -0.84812
 Alpha  occ. eigenvalues --   -0.80734  -0.79122  -0.70503  -0.70103  -0.69841
 Alpha  occ. eigenvalues --   -0.63466  -0.63257  -0.59474  -0.58783  -0.56681
 Alpha  occ. eigenvalues --   -0.55823  -0.55045  -0.54012  -0.52957  -0.50642
 Alpha  occ. eigenvalues --   -0.50542  -0.49558  -0.48748  -0.47998  -0.47699
 Alpha  occ. eigenvalues --   -0.46112  -0.45876  -0.44327  -0.42518  -0.42503
 Alpha  occ. eigenvalues --   -0.40027  -0.39041  -0.33533  -0.33006  -0.32224
 Alpha  occ. eigenvalues --   -0.28410
 Alpha virt. eigenvalues --    0.03257   0.05361   0.05444   0.08555   0.09893
 Alpha virt. eigenvalues --    0.13030   0.13934   0.14349   0.14869   0.15771
 Alpha virt. eigenvalues --    0.16628   0.17207   0.18370   0.18503   0.18829

 Mulliken charges:
               1
     1  C   -0.103337
     2  C    0.116750
     3  O   -0.513642
     4  C    0.127461
     5  C   -0.295462
     6  H    0.158763
     7  H    0.163039
     8  H    0.151781
     9  N   -0.335313
    10  H    0.284672
    11  H    0.284223
    12  Cl  -0.109515
    13  C   -0.420163
    14  H    0.158972
    15  H    0.170274
    16  H    0.166034
    17  C    0.178320
    18  C   -0.284833
    19  C   -0.149987
    20  C   -0.141242
    21  C   -0.144583
    22  C   -0.247397
    23  H    0.154465
    24  H    0.140124
    25  H    0.142765
    26  H    0.139740
    27  H    0.138983
    28  H    0.069109
 Sum of Mulliken charges =  -0.00000

 Dipole moment (field-independent basis, Debye):
    X=             -8.0399    Y=             -6.5076    Z=              2.9466  Tot=             10.7551
 Quadrupole moment (field-independent basis, Debye-Ang):
   XX=            -73.2362   YY=           -108.4887   ZZ=            -81.6615
   XY=             -9.7669   XZ=             -9.0894   YZ=             -8.8897

  Exact polarizability: 241.001   8.510 217.717  -6.459  -3.674 203.010
 Approx polarizability: 186.296   3.326 175.877  -4.381  -1.108 175.474

 ******    1 imaginary frequencies (negative Signs) ******

                      1                      2                      3
                      A                      A                      A
 Frequencies --   -351.7181                37.4360                59.3261
 Red. masses --      6.1665                 4.0443                 5.0106
 Frc consts  --      0.4494                 0.0033                 0.0104
 IR Inten    --    924.9610                 0.8566                 5.8368

                      4                      5                      6
                      A                      A                      A
 Frequencies --     73.8091                87.3319               102.5668
 Red. masses --      4.2286                 2.6314                 3.5711
 Frc consts  --      0.0136                 0.0118                 0.0221
 IR Inten    --      1.7768                 5.4850                 3.0815

                      7                      8                      9
                      A                      A                      A
 Frequencies --    162.2096               180.8245               199.4904
 Red. masses --      2.2945                 2.8625                 2.3196
 Frc consts  --      0.0356                 0.0551                 0.0544
 IR Inten    --      0.4479                 5.6386                10.6667

                     10                     11                     12
                      A                      A                      A
 Frequencies --    234.5722               247.9205               269.9609
 Red. masses --      3.1970                 2.7494                 2.6731
 Frc consts  --      0.1036                 0.0996                 0.1148
 IR Inten    --     20.1431                19.9240                 8.5141

                     13                     14                     15
                      A                      A                      A
 Frequencies --    275.9858               307.9452               341.4125
 Red. masses --      1.3558                 3.0740                 2.9610
 Frc consts  --      0.0608                 0.1718                 0.2034
 IR Inten    --      1.2096                23.7978                 6.9911

                     16                     17                     18
                      A                      A                      A
 Frequencies --    370.8794               390.4184               425.7138
 Red. masses --      5.4651                 3.3587                 2.8933
 Frc consts  --      0.4429                 0.3016                 0.3089
 IR Inten    --      3.2931                53.7195                 0.0239

                     19                     20                     21
                      A                      A                      A
 Frequencies --    482.6202               508.4647               596.4958
 Red. masses --      5.4042                 4.0966                 5.1533
 Frc consts  --      0.7416                 0.6240                 1.0803
 IR Inten    --     26.3889                 3.3123                78.9130

                     22                     23                     24
                      A                      A                      A
 Frequencies --    610.1472               646.0244               669.1804
 Red. masses --      3.6762                 6.3288                 1.5477
 Frc consts  --      0.8063                 1.5562                 0.4083
 IR Inten    --     64.2456                17.9451                32.5795

                     25                     26                     27
                      A                      A                      A
 Frequencies --    721.6719               731.2967               780.0750
 Red. masses --      3.6926                 1.4374                 3.3270
 Frc consts  --      1.1331                 0.4529                 1.1928
 IR Inten    --    133.8510               174.3772                70.4114

                     28                     29                     30
                      A                      A                      A
 Frequencies --    806.8023               881.3519               954.9337
 Red. masses --      2.5098                 1.2453                 1.4466
 Frc consts  --      0.9625                 0.5699                 0.7772
 IR Inten    --      9.4981                 0.3126                10.3539

                     31                     32                     33
                      A                      A                      A
 Frequencies --   1010.7943              1013.6956              1022.2465
 Red. masses --      1.3471                 1.3117                 1.6956
 Frc consts  --      0.8109                 0.7941                 1.0439
 IR Inten    --      1.7231                 3.9845                12.7816

                     34                     35                     36
                      A                      A                      A
 Frequencies --   1025.0190              1027.2404              1031.4312
 Red. masses --      2.3186                 1.8369                 1.7256
 Frc consts  --      1.4353                 1.1420                 1.0816
 IR Inten    --     54.5255                 4.9873               133.9093

                     37                     38                     39
                      A                      A                      A
 Frequencies --   1049.1349              1054.8147              1071.3265
 Red. masses --      1.4903                 2.4365                 1.6859
 Frc consts  --      0.9665                 1.5972                 1.1400
 IR Inten    --     26.6970                98.8917                38.5134

                     40                     41                     42
                      A                      A                      A
 Frequencies --   1074.6172              1107.2638              1109.1785
 Red. masses --      2.5183                 1.9401                 1.5938
 Frc consts  --      1.7135                 1.4014                 1.1553
 IR Inten    --     43.8365                63.3377                27.8414

                     43                     44                     45
                      A                      A                      A
 Frequencies --   1182.3281              1189.0573              1206.7718
 Red. masses --      1.1395                 3.4172                 1.1212
 Frc consts  --      0.9385                 2.8466                 0.9620
 IR Inten    --      0.3796                45.0135                 0.1113

                     46                     47                     48
                      A                      A                      A
 Frequencies --   1230.0583              1308.9707              1338.9571
 Red. masses --      1.3841                 4.5738                 3.1485
 Frc consts  --      1.2339                 4.6173                 3.3257
 IR Inten    --     27.4156                 9.4190              1027.4249

                     49                     50                     51
                      A                      A                      A
 Frequencies --   1350.9564              1357.7839              1415.3039
 Red. masses --      1.3174                 1.4283                 1.3048
 Frc consts  --      1.4166                 1.5515                 1.5399
 IR Inten    --      2.0566                 1.5253                29.2320

                     52                     53                     54
                      A                      A                      A
 Frequencies --   1429.4435              1456.3791              1477.6297
 Red. masses --      2.1965                 1.1850                 1.2810
 Frc consts  --      2.6443                 1.4808                 1.6479
 IR Inten    --     89.1046                 9.0749                76.6657

                     55                     56                     57
                      A                      A                      A
 Frequencies --   1483.3781              1487.0473              1493.4921
 Red. masses --      1.1092                 2.0304                 1.1564
 Frc consts  --      1.4381                 2.6453                 1.5197
 IR Inten    --     33.3552                 3.7619                70.0196

                     58                     59                     60
                      A                      A                      A
 Frequencies --   1502.5200              1510.0356              1549.5087
 Red. masses --      1.3163                 1.1078                 2.6700
 Frc consts  --      1.7509                 1.4882                 3.7770
 IR Inten    --    101.5468                65.1876                62.5087

                     61                     62                     63
                      A                      A                      A
 Frequencies --   1645.5239              1648.7401              1655.6555
 Red. masses --      4.8492                 1.8760                 2.0406
 Frc consts  --      7.7361                 3.0045                 3.2957
 IR Inten    --      6.5859               668.2245               315.5210

                     64                     65                     66
                      A                      A                      A
 Frequencies --   1676.0762              2967.1042              3068.8979
 Red. masses --      5.8293                 1.0815                 1.0355
 Frc consts  --      9.6484                 5.6096                 5.7462
 IR Inten    --     99.8861               155.9809                47.1624

                     67                     68                     69
                      A                      A                      A
 Frequencies --   3081.7328              3146.5401              3160.0357
 Red. masses --      1.0368                 1.1023                 1.1022
 Frc consts  --      5.8017                 6.4302                 6.4850
 IR Inten    --      7.5564                11.5663                 7.3075

                     70                     71                     72
                      A                      A                      A
 Frequencies --   3172.7508              3176.5022              3185.3324
 Red. masses --      1.1044                 1.1043                 1.0872
 Frc consts  --      6.5500                 6.5650                 6.4993
 IR Inten    --     14.6934                 7.7088                12.4047

                     73                     74                     75
                      A                      A                      A
 Frequencies --   3190.9745              3200.3597              3208.1733
 Red. masses --      1.0871                 1.0911                 1.0950
 Frc consts  --      6.5221                 6.5841                 6.6404
 IR Inten    --      1.2847                14.8935                46.4508

                     76                     77                     78
                      A                      A                      A
 Frequencies --   3218.8912              3514.8908              3597.4573
 Red. masses --      1.0988                 1.0511                 1.0965
 Frc consts  --      6.7080                 7.6509                 8.3607
 IR Inten    --     17.7366                22.1790                50.6105

 - Thermochemistry -
 -------------------
 Temperature   298.150 Kelvin.  Pressure   1.00000 Atm.
 Atom     1 has atomic number  6 and mass  12.00000

 Molecular mass:   211.07639 amu.
 Principal axes and moments of inertia in atomic units:
                           1         2         3
     Eigenvalues --  2143.918824054.334384604.11141
           X            0.99962  -0.02039  -0.01859
           Y            0.01849   0.99510  -0.09713
           Z            0.02048   0.09675   0.99510
 This molecule is an asymmetric top.
 Rotational symmetry number  1.
 Warning -- assumption of classical behavior for rotation
           may cause significant error
 Rotational temperatures (Kelvin)      0.04040     0.02136     0.01881
 Rotational constants (GHZ):           0.84180     0.44514     0.39198
    1 imaginary frequencies ignored.
 Zero-point vibrational energy     605543.0 (Joules/Mol)
                                  144.72826 (Kcal/Mol)
 Warning -- explicit consideration of  21 degrees of freedom as
           vibrations may cause significant error
 Vibrational temperatures:     53.86    85.36   106.19   125.65   147.57
          (Kelvin)            233.38   260.17   287.02   337.50   356.70
                              388.41   397.08   443.06   491.22   533.61
                              561.73   612.51   694.38   731.57   858.22
                              877.87   929.49   962.80  1038.32  1052.17
                             1122.35  1160.81  1268.07  1373.94  1454.31
                             1458.48  1470.78  1474.77  1477.97  1484.00
                             1509.47  1517.64  1541.40  1546.13  1593.11
                             1595.86  1701.11  1710.79  1736.28  1769.78
                             1883.32  1926.46  1943.72  1953.55  2036.31
                             2056.65  2095.40  2125.98  2134.25  2139.53
                             2148.80  2161.79  2172.60  2229.40  2367.54
                             2372.17  2382.12  2411.50  4269.00  4415.46
                             4433.93  4527.17  4546.59  4564.88  4570.28
                             4582.98  4591.10  4604.60  4615.85  4631.27
                             5057.14  5175.94

 Zero-point correction=                           0.230639 (Hartree/Particle)
 Thermal correction to Energy=                    0.244868
 Thermal correction to Enthalpy=                  0.245812
 Thermal correction to Gibbs Free Energy=         0.188879
 Sum of electronic and zero-point Energies=          -1017.535653
 Sum of electronic and thermal Energies=             -1017.521424
 Sum of electronic and thermal Enthalpies=           -1017.520480
 Sum of electronic and thermal Free Energies=        -1017.577413

                     E (Thermal)             CV                S
                      KCal/Mol        Cal/Mol-Kelvin    Cal/Mol-Kelvin
 Total                  153.657             52.548            119.827
 Electronic               0.000              0.000              0.000
 Translational            0.889              2.981             41.945
 Rotational               0.889              2.981             32.059
 Vibrational            151.880             46.587             45.823
 Vibration     1          0.594              1.982              5.390
 Vibration     2          0.597              1.974              4.479
 Vibration     3          0.599              1.966              4.049
 Vibration     4          0.601              1.958              3.719
 Vibration     5          0.605              1.947              3.405
 Vibration     6          0.622              1.889              2.524
 Vibration     7          0.630              1.866              2.320
 Vibration     8          0.638              1.841              2.138
 Vibration     9          0.654              1.788              1.844
 Vibration    10          0.662              1.766              1.745
 Vibration    11          0.674              1.728              1.596
 Vibration    12          0.678              1.718              1.558
 Vibration    13          0.698              1.659              1.373
 Vibration    14          0.721              1.593              1.206
 Vibration    15          0.743              1.532              1.076
 Vibration    16          0.758              1.491              0.999
 Vibration    17          0.788              1.414              0.873
 Vibration    18          0.839              1.289              0.703
 Vibration    19          0.864              1.231              0.637
 Vibration    20          0.954              1.039              0.456
 Vibration    21          0.969              1.010              0.433

 Optimization completed.
    -- Stationary point found.
 Normal termination of Gaussian 16 at Fri Mar 26 00:19:20 2021.
