 Gaussian 16, Revision A.03,
 Gaussian 16:  ES64L-G16RevA.03 25-Dec-2016

 ----------------------------------------------------------------------
 # wB97XD def2tzvp, opt=(ts, noeigen, calcfc, maxcycles=70, maxstep=5),
  freq=noraman, scrf=(iefpcm, solvent=water)
 ----------------------------------------------------------------------

 ------------------------
 2_iteration/TS-829-2.out
 ------------------------
 Symbolic Z-matrix:
 Charge =  0 Multiplicity = 1

 SCF Done:  E(RwB97XD) =  -3646.74679692     A.U. after   15 cycles
 SCF Done:  E(RwB97XD) =  -3646.74680270     A.U. after   10 cycles
 SCF Done:  E(RwB97XD) =  -3646.74680352     A.U. after    9 cycles
 SCF Done:  E(RwB97XD) =  -3646.74680365     A.U. after    7 cycles
 Optimization completed.
    -- Stationary point found.
 Normal termination of Gaussian 16 at Fri Feb 26 08:11:25 2021.

 ---------------------------------------------------------------------
 #N Geom=AllCheck Guess=TCheck SCRF=Check GenChk RwB97XD/def2TZVP Freq
 ---------------------------------------------------------------------

 Structure from the checkpoint file:  "/beegfs/scratch/user/q/tla25/Gau-21232.chk"
 ------------------------
 2_iteration/TS-829-2.out
 ------------------------
 Charge =  0 Multiplicity = 1

                         Standard orientation:
 ---------------------------------------------------------------------
 Center     Atomic      Atomic             Coordinates (Angstroms)
 Number     Number       Type             X           Y           Z
 ---------------------------------------------------------------------
      1          6           0        0.818332    0.073597   -0.138921
      2          6           0        0.776596    1.490728    0.200802
      3          8           0       -0.211039    2.023398    0.721598
      4          6           0       -0.279089   -0.775687   -0.003639
      5          6           0        0.092840   -0.757217    2.758020
      6          1           0        0.882527   -0.073089    2.450721
      7          1           0       -0.796555   -0.181446    2.998181
      8          1           0        0.418658   -1.316980    3.633335
      9          7           0       -0.184336   -1.658296    1.641251
     10          1           0        0.604554   -2.277032    1.484784
     11          1           0       -0.991889   -2.250662    1.802268
     12         17           0       -0.242956   -2.298262   -0.992523
     13          6           0       -1.669477   -0.200665   -0.114075
     14          6           0       -2.676559   -0.368221    0.825306
     15          6           0       -3.943030    0.157717    0.603587
     16          6           0       -4.223926    0.844097   -0.564576
     17          6           0       -3.226332    0.998591   -1.518781
     18          6           0       -1.965663    0.478660   -1.296052
     19          1           0       -2.510178   -0.891614    1.754621
     20          1           0       -4.710099    0.024552    1.355586
     21          1           0       -5.211881    1.252252   -0.734646
     22          1           0       -3.431386    1.527446   -2.440873
     23          1           0       -1.189979    0.603201   -2.040346
     24         35           0        2.536783   -0.716248   -0.458322
     25          7           0        1.874833    2.238283   -0.078263
     26          6           0        1.912040    3.653798    0.196880
     27          1           0        2.646105    1.821335   -0.565245
     28          1           0        1.691393    3.852221    1.246706
     29          1           0        2.911124    4.022992   -0.025424
     30          1           0        1.190907    4.206467   -0.410519
 ---------------------------------------------------------------------

 SCF Done:  E(RwB97XD) =  -3646.74680365     A.U. after    1 cycles

 The electronic state is 1-A.
 Alpha  occ. eigenvalues -- -483.12722-101.69874 -62.67548 -56.46652 -56.46322
 Alpha  occ. eigenvalues --  -56.46308 -19.19834 -14.50266 -14.44428 -10.41516
 Alpha  occ. eigenvalues --  -10.38153 -10.32136 -10.31693 -10.30850 -10.30604
 Alpha  occ. eigenvalues --  -10.29846 -10.29378 -10.29360 -10.29275 -10.29221
 Alpha  occ. eigenvalues --   -9.58474  -8.81658  -7.33108  -7.32261  -7.32222
 Alpha  occ. eigenvalues --   -6.63764  -6.62709  -6.62667  -2.74161  -2.73859
 Alpha  occ. eigenvalues --   -2.73824  -2.72971  -2.72970  -1.12848  -1.06012
 Alpha  occ. eigenvalues --   -1.01234  -0.98964  -0.95993  -0.90701  -0.87289
 Alpha  occ. eigenvalues --   -0.85681  -0.81938  -0.80087  -0.79671  -0.72417
 Alpha  occ. eigenvalues --   -0.71141  -0.68563  -0.65686  -0.65383  -0.61611
 Alpha  occ. eigenvalues --   -0.59294  -0.58233  -0.56885  -0.55483  -0.54352
 Alpha  occ. eigenvalues --   -0.53905  -0.52929  -0.51929  -0.51254  -0.50880
 Alpha  occ. eigenvalues --   -0.48976  -0.47736  -0.47322  -0.47183  -0.46191
 Alpha  occ. eigenvalues --   -0.45945  -0.44049  -0.43231  -0.41249  -0.39772
 Alpha  occ. eigenvalues --   -0.39553  -0.37322  -0.35212  -0.34288  -0.32940
 Alpha  occ. eigenvalues --   -0.31959  -0.27408
 Alpha virt. eigenvalues --    0.02497   0.04930   0.05955   0.07444   0.10292
 Alpha virt. eigenvalues --    0.11221   0.12429   0.13569   0.14346   0.15239
 Alpha virt. eigenvalues --    0.15786   0.16050   0.16769   0.17798   0.18597

 Mulliken charges:
               1
     1  C   -0.333573
     2  C    0.398337
     3  O   -0.535165
     4  C    0.215257
     5  C   -0.291914
     6  H    0.161533
     7  H    0.155836
     8  H    0.166118
     9  N   -0.304413
    10  H    0.287206
    11  H    0.292526
    12  Cl  -0.125718
    13  C    0.269940
    14  C   -0.236414
    15  C   -0.163907
    16  C   -0.155198
    17  C   -0.119428
    18  C   -0.317180
    19  H    0.139454
    20  H    0.144830
    21  H    0.145443
    22  H    0.144659
    23  H    0.153068
    24  Br  -0.157392
    25  N   -0.325310
    26  C   -0.247809
    27  H    0.249119
    28  H    0.126621
    29  H    0.139446
    30  H    0.124029
 Sum of Mulliken charges =  -0.00000

 Dipole moment (field-independent basis, Debye):
    X=             -0.2380    Y=             -3.3119    Z=              4.0782  Tot=              5.2589
 Quadrupole moment (field-independent basis, Debye-Ang):
   XX=           -104.2212   YY=           -110.8500   ZZ=           -102.2631
   XY=              7.2385   XZ=             -1.2662   YZ=            -16.9863

  Exact polarizability: 289.581  -6.595 249.547 -17.632 -16.103 227.098
 Approx polarizability: 227.537  -8.522 202.084 -16.102 -12.305 197.396

 ******    1 imaginary frequencies (negative Signs) ******

                      1                      2                      3
                      A                      A                      A
 Frequencies --   -345.0318                36.4121                39.0324
 Red. masses --      5.3356                 4.9309                 3.5102
 Frc consts  --      0.3742                 0.0039                 0.0032
 IR Inten    --    624.9351                 3.7435                 5.0398

                      4                      5                      6
                      A                      A                      A
 Frequencies --     54.1815                77.2069                83.2252
 Red. masses --      4.9402                 1.4800                 5.3012
 Frc consts  --      0.0085                 0.0052                 0.0216
 IR Inten    --      1.5269                 4.2220                10.2078

                      7                      8                      9
                      A                      A                      A
 Frequencies --    112.5214               115.9776               131.3158
 Red. masses --      3.1622                 2.0289                 3.9633
 Frc consts  --      0.0236                 0.0161                 0.0403
 IR Inten    --     14.0387                 0.3390                11.0768

                     10                     11                     12
                      A                      A                      A
 Frequencies --    140.3926               161.3537               171.2765
 Red. masses --      1.4223                 4.1817                10.9579
 Frc consts  --      0.0165                 0.0641                 0.1894
 IR Inten    --      1.6870                 8.6689                 3.2360

                     13                     14                     15
                      A                      A                      A
 Frequencies --    206.9643               210.2895               256.8126
 Red. masses --      4.6466                 3.0047                 4.2172
 Frc consts  --      0.1173                 0.0783                 0.1639
 IR Inten    --     12.4059                 2.8950                 5.5923

                     16                     17                     18
                      A                      A                      A
 Frequencies --    279.3981               288.7806               306.7479
 Red. masses --      4.7175                 4.3212                 4.0316
 Frc consts  --      0.2170                 0.2123                 0.2235
 IR Inten    --      2.3641                12.7333                18.4501

                     19                     20                     21
                      A                      A                      A
 Frequencies --    343.7526               366.3371               381.2292
 Red. masses --      4.2797                 2.5422                 2.3830
 Frc consts  --      0.2980                 0.2010                 0.2041
 IR Inten    --     34.6140                87.5524                51.9625

                     22                     23                     24
                      A                      A                      A
 Frequencies --    416.6315               422.8172               522.7853
 Red. masses --      4.2335                 2.8924                 3.6801
 Frc consts  --      0.4330                 0.3047                 0.5926
 IR Inten    --     14.8273                 0.2552                11.0446

                     25                     26                     27
                      A                      A                      A
 Frequencies --    569.1405               598.5835               639.0875
 Red. masses --      4.1369                 3.5204                 6.3990
 Frc consts  --      0.7895                 0.7432                 1.5399
 IR Inten    --    169.5869                40.2916                12.1297

                     28                     29                     30
                      A                      A                      A
 Frequencies --    682.4006               716.7047               724.0761
 Red. masses --      3.3184                 2.4912                 1.6916
 Frc consts  --      0.9105                 0.7539                 0.5225
 IR Inten    --     98.6071                20.6909               214.3391

                     31                     32                     33
                      A                      A                      A
 Frequencies --    774.9435               777.0095               828.7584
 Red. masses --      4.0984                 3.7622                 3.3596
 Frc consts  --      1.4501                 1.3383                 1.3595
 IR Inten    --     65.3601                44.5521                43.6388

                     34                     35                     36
                      A                      A                      A
 Frequencies --    867.2042               875.8243               952.1909
 Red. masses --      1.2703                 4.0226                 1.4726
 Frc consts  --      0.5629                 1.8180                 0.7867
 IR Inten    --      1.4409                66.6622                 0.7619

                     37                     38                     39
                      A                      A                      A
 Frequencies --    997.6030              1009.8047              1011.9071
 Red. masses --      1.3895                 1.6106                 1.9202
 Frc consts  --      0.8148                 0.9677                 1.1584
 IR Inten    --     20.1741                 2.4146                14.8783

                     40                     41                     42
                      A                      A                      A
 Frequencies --   1025.3293              1029.4813              1063.9990
 Red. masses --      4.6047                 1.3110                 2.2146
 Frc consts  --      2.8522                 0.8187                 1.4771
 IR Inten    --      2.2874                 0.3987                10.1059

                     43                     44                     45
                      A                      A                      A
 Frequencies --   1070.1025              1088.2862              1122.5350
 Red. masses --      2.5111                 1.5809                 1.6458
 Frc consts  --      1.6942                 1.1032                 1.2218
 IR Inten    --      2.7972               112.7310                13.4027

                     46                     47                     48
                      A                      A                      A
 Frequencies --   1136.0021              1156.3052              1185.5787
 Red. masses --      3.8442                 1.2880                 1.6847
 Frc consts  --      2.9229                 1.0147                 1.3952
 IR Inten    --     31.4827                 2.5843                22.3295

                     49                     50                     51
                      A                      A                      A
 Frequencies --   1185.9562              1214.4683              1219.9623
 Red. masses --      1.1576                 1.1894                 2.8806
 Frc consts  --      0.9593                 1.0336                 2.5259
 IR Inten    --      1.5398                 6.9765                92.1870

                     52                     53                     54
                      A                      A                      A
 Frequencies --   1246.9402              1297.3037              1319.5569
 Red. masses --      1.4677                 2.3903                 4.2172
 Frc consts  --      1.3446                 2.3702                 4.3264
 IR Inten    --     28.7920               411.2168                54.2748

                     55                     56                     57
                      A                      A                      A
 Frequencies --   1341.4858              1358.6945              1408.5611
 Red. masses --      1.3168                 1.4865                 5.1379
 Frc consts  --      1.3962                 1.6168                 6.0061
 IR Inten    --     15.3713                 5.9237               645.9065

                     58                     59                     60
                      A                      A                      A
 Frequencies --   1454.8761              1462.9794              1474.5120
 Red. masses --      1.2104                 1.2402                 1.0591
 Frc consts  --      1.5095                 1.5640                 1.3567
 IR Inten    --     27.3906                18.4180                18.6518

                     61                     62                     63
                      A                      A                      A
 Frequencies --   1487.7007              1490.6497              1503.3168
 Red. masses --      1.0507                 2.1329                 1.0537
 Frc consts  --      1.3701                 2.7923                 1.4031
 IR Inten    --     12.5016                42.7666                14.6871

                     64                     65                     66
                      A                      A                      A
 Frequencies --   1507.1324              1543.0261              1554.4686
 Red. masses --      1.0805                 2.3378                 1.9176
 Frc consts  --      1.4460                 3.2795                 2.7301
 IR Inten    --     16.4149                25.0071               714.0206

                     67                     68                     69
                      A                      A                      A
 Frequencies --   1645.9210              1651.3580              1656.7664
 Red. masses --      1.6023                 2.9797                 3.9686
 Frc consts  --      2.5575                 4.7875                 6.4182
 IR Inten    --    225.7330               323.4747                64.2155

                     70                     71                     72
                      A                      A                      A
 Frequencies --   1675.1014              3046.4862              3081.3993
 Red. masses --      5.9258                 1.0376                 1.0335
 Frc consts  --      9.7966                 5.6739                 5.7817
 IR Inten    --      1.4978                86.2945                27.8942

                     73                     74                     75
                      A                      A                      A
 Frequencies --   3105.7017              3156.9048              3160.6300
 Red. masses --      1.1017                 1.1018                 1.1049
 Frc consts  --      6.2609                 6.4694                 6.5032
 IR Inten    --     44.2242                25.7764                 4.9283

                     76                     77                     78
                      A                      A                      A
 Frequencies --   3186.6565              3198.9072              3206.9256
 Red. masses --      1.1052                 1.0861                 1.0892
 Frc consts  --      6.6125                 6.5480                 6.5999
 IR Inten    --     11.6666                 0.4432                 4.6964

                     79                     80                     81
                      A                      A                      A
 Frequencies --   3215.9298              3224.3047              3240.4163
 Red. masses --      1.0935                 1.0976                 1.0931
 Frc consts  --      6.6632                 6.7232                 6.7627
 IR Inten    --     21.3198                23.4556                17.2289

                     82                     83                     84
                      A                      A                      A
 Frequencies --   3516.8241              3591.1332              3680.7785
 Red. masses --      1.0518                 1.0954                 1.0781
 Frc consts  --      7.6643                 8.3235                 8.6060
 IR Inten    --     48.5914                55.0016                82.8603

 - Thermochemistry -
 -------------------
 Temperature   298.150 Kelvin.  Pressure   1.00000 Atm.
 Atom     1 has atomic number  6 and mass  12.00000

 Molecular mass:   303.99780 amu.
 Principal axes and moments of inertia in atomic units:
                           1         2         3
     Eigenvalues --  3563.262226092.448907488.29076
           X            0.99890   0.04572   0.01004
           Y           -0.04508   0.99739  -0.05644
           Z           -0.01260   0.05593   0.99836
 This molecule is an asymmetric top.
 Rotational symmetry number  1.
 Warning -- assumption of classical behavior for rotation
           may cause significant error
 Rotational temperatures (Kelvin)      0.02431     0.01422     0.01157
 Rotational constants (GHZ):           0.50649     0.29623     0.24101
    1 imaginary frequencies ignored.
 Zero-point vibrational energy     624104.0 (Joules/Mol)
                                  149.16443 (Kcal/Mol)
 Warning -- explicit consideration of  25 degrees of freedom as
           vibrations may cause significant error
 Vibrational temperatures:     52.39    56.16    77.96   111.08   119.74
          (Kelvin)            161.89   166.87   188.93   201.99   232.15
                              246.43   297.78   302.56   369.50   401.99
                              415.49   441.34   494.58   527.08   548.50
                              599.44   608.34   752.17   818.87   861.23
                              919.50   981.82  1031.18  1041.78  1114.97
                             1117.94  1192.40  1247.71  1260.12  1369.99
                             1435.33  1452.88  1455.91  1475.22  1481.19
                             1530.86  1539.64  1565.80  1615.08  1634.45
                             1663.67  1705.78  1706.33  1747.35  1755.25
                             1794.07  1866.53  1898.55  1930.10  1954.86
                             2026.61  2093.24  2104.90  2121.49  2140.47
                             2144.71  2162.94  2168.43  2220.07  2236.53
                             2368.11  2375.94  2383.72  2410.10  4383.21
                             4433.45  4468.41  4542.08  4547.44  4584.89
                             4602.51  4614.05  4627.01  4639.06  4662.24
                             5059.93  5166.84  5295.82

 Zero-point correction=                           0.237709 (Hartree/Particle)
 Thermal correction to Energy=                    0.255030
 Thermal correction to Enthalpy=                  0.255974
 Thermal correction to Gibbs Free Energy=         0.190782
 Sum of electronic and zero-point Energies=          -3646.509095
 Sum of electronic and thermal Energies=             -3646.491774
 Sum of electronic and thermal Enthalpies=           -3646.490829
 Sum of electronic and thermal Free Energies=        -3646.556021

                     E (Thermal)             CV                S
                      KCal/Mol        Cal/Mol-Kelvin    Cal/Mol-Kelvin
 Total                  160.034             61.452            137.208
 Electronic               0.000              0.000              0.000
 Translational            0.889              2.981             43.032
 Rotational               0.889              2.981             33.452
 Vibrational            158.256             55.490             60.724
 Vibration     1          0.594              1.982              5.445
 Vibration     2          0.594              1.981              5.308
 Vibration     3          0.596              1.976              4.659
 Vibration     4          0.599              1.964              3.961
 Vibration     5          0.600              1.961              3.813
 Vibration     6          0.607              1.939              3.225
 Vibration     7          0.608              1.936              3.166
 Vibration     8          0.612              1.922              2.927
 Vibration     9          0.615              1.913              2.799
 Vibration    10          0.622              1.890              2.534
 Vibration    11          0.626              1.878              2.421
 Vibration    12          0.641              1.830              2.070
 Vibration    13          0.642              1.825              2.041
 Vibration    14          0.666              1.751              1.683
 Vibration    15          0.680              1.712              1.537
 Vibration    16          0.685              1.695              1.481
 Vibration    17          0.697              1.661              1.380
 Vibration    18          0.723              1.588              1.195
 Vibration    19          0.739              1.542              1.095
 Vibration    20          0.751              1.510              1.034
 Vibration    21          0.780              1.434              0.903
 Vibration    22          0.785              1.421              0.882
 Vibration    23          0.878              1.200              0.604
 Vibration    24          0.925              1.098              0.506
 Vibration    25          0.957              1.035              0.452

 Optimization completed.
    -- Stationary point found.
 Normal termination of Gaussian 16 at Fri Feb 26 09:25:24 2021.
