 Gaussian 16, Revision A.03,
 Gaussian 16:  ES64L-G16RevA.03 25-Dec-2016

 ----------------------------------------------------------------------
 # wB97XD def2tzvp, opt=(ts, noeigen, calcfc, maxcycles=70, maxstep=8),
  freq=noraman, scrf=(iefpcm, solvent=water)
 ----------------------------------------------------------------------

 -----------------------
 1_iteration/TS-97-1.out
 -----------------------
 Symbolic Z-matrix:
 Charge =  0 Multiplicity = 1

 SCF Done:  E(RwB97XD) =  -597.465877847     A.U. after   15 cycles
 SCF Done:  E(RwB97XD) =  -597.466858948     A.U. after   12 cycles
 SCF Done:  E(RwB97XD) =  -597.467520819     A.U. after   12 cycles
 SCF Done:  E(RwB97XD) =  -597.467976910     A.U. after   12 cycles
 SCF Done:  E(RwB97XD) =  -597.468254377     A.U. after   12 cycles
 SCF Done:  E(RwB97XD) =  -597.468394653     A.U. after   10 cycles
 SCF Done:  E(RwB97XD) =  -597.468467543     A.U. after   12 cycles
 SCF Done:  E(RwB97XD) =  -597.468483940     A.U. after   11 cycles
 SCF Done:  E(RwB97XD) =  -597.468411028     A.U. after   12 cycles
 SCF Done:  E(RwB97XD) =  -597.468493607     A.U. after   12 cycles
 SCF Done:  E(RwB97XD) =  -597.468468396     A.U. after   11 cycles
 SCF Done:  E(RwB97XD) =  -597.468498048     A.U. after   10 cycles
 SCF Done:  E(RwB97XD) =  -597.468498679     A.U. after    7 cycles
 SCF Done:  E(RwB97XD) =  -597.468499176     A.U. after    7 cycles
 Optimization completed.
    -- Stationary point found.
 Normal termination of Gaussian 16 at Sun Jan 31 09:19:27 2021.

 ---------------------------------------------------------------------
 #N Geom=AllCheck Guess=TCheck SCRF=Check GenChk RwB97XD/def2TZVP Freq
 ---------------------------------------------------------------------

 Structure from the checkpoint file:  "/beegfs/scratch/user/q/tla25/Gau-16851.chk"
 -----------------------
 1_iteration/TS-97-1.out
 -----------------------
 Charge =  0 Multiplicity = 1

                         Standard orientation:
 ---------------------------------------------------------------------
 Center     Atomic      Atomic             Coordinates (Angstroms)
 Number     Number       Type             X           Y           Z
 ---------------------------------------------------------------------
      1          6           0       -1.616643   -0.619629   -0.136735
      2          6           0       -2.917225   -0.659027    0.391215
      3          8           0       -3.859082   -1.383879    0.009760
      4          6           0       -0.646616    0.294774    0.383860
      5          6           0        0.188185    2.940682   -0.562947
      6          1           0        0.009927    3.707936   -1.316450
      7          1           0        0.071589    3.379085    0.425138
      8          1           0        1.202970    2.562885   -0.669219
      9          7           0       -0.754599    1.827934   -0.710812
     10          1           0       -1.707139    2.125758   -0.529967
     11          1           0       -0.746442    1.466759   -1.657594
     12          6           0        0.805366   -0.093901    0.207275
     13          6           0        1.435856   -0.134407   -1.034890
     14          6           0        2.756489   -0.534987   -1.158338
     15          6           0        3.477706   -0.921047   -0.038736
     16          6           0        2.862486   -0.897485    1.202606
     17          6           0        1.544422   -0.482462    1.323204
     18          1           0        0.902068    0.145659   -1.932865
     19          1           0        3.220054   -0.547827   -2.136543
     20          1           0        4.508640   -1.236932   -0.133757
     21          1           0        3.409027   -1.198579    2.087372
     22          1           0        1.091757   -0.474300    2.305197
     23          6           0       -0.915425    0.983966    1.713939
     24          1           0       -1.011850    0.247329    2.510168
     25          1           0       -0.095403    1.652033    1.972071
     26          1           0       -1.833607    1.566402    1.696430
     27          6           0       -1.310423   -1.517423   -1.308362
     28          1           0       -2.142368   -2.208824   -1.438849
     29          1           0       -1.195678   -0.974881   -2.254143
     30          1           0       -0.398375   -2.102000   -1.167781
     31          1           0       -3.115381    0.010665    1.245850
 ---------------------------------------------------------------------

 SCF Done:  E(RwB97XD) =  -597.468499176     A.U. after    1 cycles

 The electronic state is 1-A.
 Alpha  occ. eigenvalues --  -19.18664 -14.49321 -10.35919 -10.32316 -10.32060
 Alpha  occ. eigenvalues --  -10.30704 -10.29506 -10.29369 -10.29295 -10.29240
 Alpha  occ. eigenvalues --  -10.29137 -10.28382 -10.26085 -10.24990  -1.08452
 Alpha  occ. eigenvalues --   -1.04827  -0.97493  -0.92006  -0.85712  -0.85104
 Alpha  occ. eigenvalues --   -0.82920  -0.79541  -0.74979  -0.73609  -0.70764
 Alpha  occ. eigenvalues --   -0.67318  -0.64046  -0.61321  -0.59292  -0.58402
 Alpha  occ. eigenvalues --   -0.56680  -0.55545  -0.54855  -0.52834  -0.52265
 Alpha  occ. eigenvalues --   -0.51274  -0.49643  -0.48854  -0.48529  -0.47911
 Alpha  occ. eigenvalues --   -0.47475  -0.46526  -0.45078  -0.44103  -0.43192
 Alpha  occ. eigenvalues --   -0.42766  -0.42221  -0.41369  -0.34086  -0.33697
 Alpha  occ. eigenvalues --   -0.30605  -0.26028
 Alpha virt. eigenvalues --    0.03108   0.04988   0.07478   0.09541   0.12406
 Alpha virt. eigenvalues --    0.13478   0.13614   0.14408   0.15649   0.16297
 Alpha virt. eigenvalues --    0.16634   0.18252   0.18377   0.18407   0.18589

 Mulliken charges:
               1
     1  C   -0.128360
     2  C    0.061258
     3  O   -0.570190
     4  C    0.141726
     5  C   -0.287180
     6  H    0.159625
     7  H    0.160702
     8  H    0.160037
     9  N   -0.296405
    10  H    0.284957
    11  H    0.280630
    12  C    0.288511
    13  C   -0.372125
    14  C   -0.107312
    15  C   -0.166912
    16  C   -0.133313
    17  C   -0.272212
    18  H    0.152959
    19  H    0.144984
    20  H    0.144565
    21  H    0.143787
    22  H    0.153544
    23  C   -0.463815
    24  H    0.170066
    25  H    0.169035
    26  H    0.162851
    27  C   -0.402775
    28  H    0.125731
    29  H    0.106823
    30  H    0.130263
    31  H    0.058544
 Sum of Mulliken charges =  -0.00000

 Dipole moment (field-independent basis, Debye):
    X=              8.4200    Y=              9.4079    Z=             -0.9037  Tot=             12.6578
 Quadrupole moment (field-independent basis, Debye-Ang):
   XX=           -116.0017   YY=            -81.1385   ZZ=            -75.6335
   XY=            -22.2068   XZ=             -1.0211   YZ=             -4.4906

  Exact polarizability: 272.313  13.756 189.868  -8.560  -4.442 201.464
 Approx polarizability: 203.831   6.103 153.847  -4.619  -4.810 172.522

 ******    1 imaginary frequencies (negative Signs) ******

                      1                      2                      3
                      A                      A                      A
 Frequencies --   -342.0824                51.9500                63.9268
 Red. masses --      5.9836                 4.2412                 3.5268
 Frc consts  --      0.4125                 0.0067                 0.0085
 IR Inten    --    927.9910                 5.4424                 1.0920

                      4                      5                      6
                      A                      A                      A
 Frequencies --     86.3706                98.7696               110.8132
 Red. masses --      2.2542                 2.4856                 3.5651
 Frc consts  --      0.0099                 0.0143                 0.0258
 IR Inten    --      0.7634                 6.3766                 9.9205

                      7                      8                      9
                      A                      A                      A
 Frequencies --    160.7704               197.7734               223.8006
 Red. masses --      1.5579                 1.0972                 2.1774
 Frc consts  --      0.0237                 0.0253                 0.0643
 IR Inten    --      0.8954                 0.0614                 1.7103

                     10                     11                     12
                      A                      A                      A
 Frequencies --    245.0187               274.8187               293.1332
 Red. masses --      3.3263                 3.3901                 3.7762
 Frc consts  --      0.1177                 0.1509                 0.1912
 IR Inten    --     15.8988                10.5754                 3.9316

                     13                     14                     15
                      A                      A                      A
 Frequencies --    323.6918               330.8149               346.1195
 Red. masses --      2.6107                 2.0944                 1.5688
 Frc consts  --      0.1612                 0.1350                 0.1107
 IR Inten    --      6.6185                11.2810                 6.5124

                     16                     17                     18
                      A                      A                      A
 Frequencies --    355.6758               387.8137               414.3293
 Red. masses --      3.0710                 2.4604                 2.7520
 Frc consts  --      0.2289                 0.2180                 0.2783
 IR Inten    --      8.0878                16.2998                24.0325

                     19                     20                     21
                      A                      A                      A
 Frequencies --    424.9179               494.8100               534.2782
 Red. masses --      2.9201                 3.7016                 3.1534
 Frc consts  --      0.3106                 0.5340                 0.5304
 IR Inten    --      0.3959                56.5589                79.0696

                     22                     23                     24
                      A                      A                      A
 Frequencies --    589.9646               638.9345               656.6649
 Red. masses --      3.3069                 6.2941                 4.0222
 Frc consts  --      0.6781                 1.5139                 1.0219
 IR Inten    --    156.6226                 3.4016                55.8763

                     25                     26                     27
                      A                      A                      A
 Frequencies --    695.8667               731.4646               773.2912
 Red. masses --      1.4304                 1.5128                 3.6864
 Frc consts  --      0.4081                 0.4769                 1.2988
 IR Inten    --     43.7439                92.2284                12.3755

                     28                     29                     30
                      A                      A                      A
 Frequencies --    800.8104               867.4421               878.8248
 Red. masses --      2.2615                 2.6289                 1.2491
 Frc consts  --      0.8545                 1.1655                 0.5684
 IR Inten    --     12.7798                 2.9834                 0.7457

                     31                     32                     33
                      A                      A                      A
 Frequencies --    961.0261               984.0610              1014.8252
 Red. masses --      1.4098                 1.7161                 1.3890
 Frc consts  --      0.7672                 0.9791                 0.8428
 IR Inten    --      2.3580               233.8407                 9.8026

                     34                     35                     36
                      A                      A                      A
 Frequencies --   1015.7872              1021.3362              1027.0575
 Red. masses --      1.4158                 1.3100                 5.0693
 Frc consts  --      0.8607                 0.8051                 3.1505
 IR Inten    --      3.1902                25.1643                 1.9834

                     37                     38                     39
                      A                      A                      A
 Frequencies --   1031.9151              1044.4942              1051.2495
 Red. masses --      1.3122                 2.1033                 1.3395
 Frc consts  --      0.8233                 1.3519                 0.8722
 IR Inten    --      0.3152                65.8071                93.0808

                     40                     41                     42
                      A                      A                      A
 Frequencies --   1062.8826              1064.1971              1083.1312
 Red. masses --      1.4185                 2.3774                 1.8718
 Frc consts  --      0.9441                 1.5864                 1.2938
 IR Inten    --      2.1819                 7.2675                46.4553

                     43                     44                     45
                      A                      A                      A
 Frequencies --   1111.0981              1117.3436              1146.8455
 Red. masses --      1.8196                 1.8640                 1.9993
 Frc consts  --      1.3235                 1.3711                 1.5493
 IR Inten    --     11.3720                63.3820                41.0356

                     46                     47                     48
                      A                      A                      A
 Frequencies --   1187.1252              1227.1476              1246.3553
 Red. masses --      1.1290                 1.1370                 1.6310
 Frc consts  --      0.9374                 1.0088                 1.4928
 IR Inten    --      0.3654                 1.6231                70.4632

                     49                     50                     51
                      A                      A                      A
 Frequencies --   1265.9237              1319.8031              1343.0016
 Red. masses --      2.5426                 4.7842                 1.3168
 Frc consts  --      2.4007                 4.9100                 1.3993
 IR Inten    --     22.2950                45.4387                 1.0171

                     52                     53                     54
                      A                      A                      A
 Frequencies --   1365.5656              1371.6145              1389.3418
 Red. masses --      2.2099                 1.4904                 1.7096
 Frc consts  --      2.4279                 1.6520                 1.9443
 IR Inten    --    674.8298               103.3920                49.4370

                     55                     56                     57
                      A                      A                      A
 Frequencies --   1412.7397              1425.6321              1455.1925
 Red. masses --      1.8028                 1.4513                 1.3056
 Frc consts  --      2.1199                 1.7378                 1.6290
 IR Inten    --     15.3981                40.3825                 6.3138

                     58                     59                     60
                      A                      A                      A
 Frequencies --   1464.1685              1491.0229              1492.0102
 Red. masses --      1.3969                 1.3190                 1.3339
 Frc consts  --      1.7643                 1.7277                 1.7496
 IR Inten    --      2.5457                27.7815                25.7391

                     61                     62                     63
                      A                      A                      A
 Frequencies --   1494.3394              1499.7207              1504.4737
 Red. masses --      1.1496                 1.0755                 1.1078
 Frc consts  --      1.5124                 1.4252                 1.4774
 IR Inten    --      8.7714                21.7806                17.9084

                     64                     65                     66
                      A                      A                      A
 Frequencies --   1511.0822              1519.5176              1549.9678
 Red. masses --      1.0691                 1.1894                 2.2306
 Frc consts  --      1.4383                 1.6180                 3.1573
 IR Inten    --     31.1545                27.8025                 9.9736

                     67                     68                     69
                      A                      A                      A
 Frequencies --   1617.0673              1643.8335              1653.3381
 Red. masses --      4.3443                 1.1518                 4.5043
 Frc consts  --      6.6931                 1.8338                 7.2545
 IR Inten    --   1467.0595                38.4461                 7.1639

                     70                     71                     72
                      A                      A                      A
 Frequencies --   1678.0838              2957.2572              3012.0258
 Red. masses --      5.7480                 1.0805                 1.0509
 Frc consts  --      9.5366                 5.5675                 5.6172
 IR Inten    --      0.7748               164.0812                79.0824

                     73                     74                     75
                      A                      A                      A
 Frequencies --   3076.6390              3076.8876              3083.2017
 Red. masses --      1.0516                 1.0692                 1.0373
 Frc consts  --      5.8646                 5.9640                 5.8099
 IR Inten    --     70.9478                24.2322                14.9722

                     76                     77                     78
                      A                      A                      A
 Frequencies --   3133.1517              3155.6647              3157.6276
 Red. masses --      1.0982                 1.1029                 1.1029
 Frc consts  --      6.3517                 6.4710                 6.4789
 IR Inten    --     18.9966                19.3594                 8.1741

                     79                     80                     81
                      A                      A                      A
 Frequencies --   3166.1223              3180.5293              3197.4592
 Red. masses --      1.1023                 1.1057                 1.0859
 Frc consts  --      6.5106                 6.5902                 6.5410
 IR Inten    --     30.7262                 8.7298                 1.3211

                     82                     83                     84
                      A                      A                      A
 Frequencies --   3205.0634              3216.0944              3224.0116
 Red. masses --      1.0892                 1.0926                 1.0950
 Frc consts  --      6.5920                 6.6582                 6.7059
 IR Inten    --      5.6510                31.1880                27.6076

                     85                     86                     87
                      A                      A                      A
 Frequencies --   3229.9071              3524.8766              3598.9850
 Red. masses --      1.0955                 1.0525                 1.0947
 Frc consts  --      6.7336                 7.7051                 8.3545
 IR Inten    --      6.7245                17.4250                38.4431

 - Thermochemistry -
 -------------------
 Temperature   298.150 Kelvin.  Pressure   1.00000 Atm.
 Atom     1 has atomic number  6 and mass  12.00000

 Molecular mass:   191.13101 amu.
 Principal axes and moments of inertia in atomic units:
                           1         2         3
     Eigenvalues --  1786.542233810.018864274.19539
           X            0.99986  -0.01679  -0.00279
           Y            0.01685   0.99958   0.02372
           Z            0.00239  -0.02376   0.99971
 This molecule is an asymmetric top.
 Rotational symmetry number  1.
 Warning -- assumption of classical behavior for rotation
           may cause significant error
 Rotational temperatures (Kelvin)      0.04848     0.02273     0.02026
 Rotational constants (GHZ):           1.01019     0.47368     0.42224
    1 imaginary frequencies ignored.
 Zero-point vibrational energy     706476.7 (Joules/Mol)
                                  168.85199 (Kcal/Mol)
 Warning -- explicit consideration of  21 degrees of freedom as
           vibrations may cause significant error
 Vibrational temperatures:     74.74    91.98   124.27   142.11   159.44
          (Kelvin)            231.31   284.55   322.00   352.53   395.40
                              421.75   465.72   475.97   497.99   511.74
                              557.98   596.13   611.36   711.92   768.71
                              848.83   919.28   944.79  1001.20  1052.41
                             1112.59  1152.19  1248.06  1264.43  1382.70
                             1415.84  1460.11  1461.49  1469.47  1477.71
                             1484.70  1502.79  1512.51  1529.25  1531.14
                             1558.38  1598.62  1607.61  1650.05  1708.01
                             1765.59  1793.23  1821.38  1898.90  1932.28
                             1964.74  1973.45  1998.95  2032.62  2051.17
                             2093.70  2106.61  2145.25  2146.67  2150.02
                             2157.76  2164.60  2174.11  2186.25  2230.06
                             2326.60  2365.11  2378.78  2414.39  4254.83
                             4333.63  4426.60  4426.95  4436.04  4507.91
                             4540.30  4543.12  4555.34  4576.07  4600.43
                             4611.37  4627.24  4638.63  4647.12  5071.51
                             5178.14

 Zero-point correction=                           0.269083 (Hartree/Particle)
 Thermal correction to Energy=                    0.283257
 Thermal correction to Enthalpy=                  0.284201
 Thermal correction to Gibbs Free Energy=         0.228413
 Sum of electronic and zero-point Energies=           -597.199416
 Sum of electronic and thermal Energies=              -597.185243
 Sum of electronic and thermal Enthalpies=            -597.184298
 Sum of electronic and thermal Free Energies=         -597.240086

                     E (Thermal)             CV                S
                      KCal/Mol        Cal/Mol-Kelvin    Cal/Mol-Kelvin
 Total                  177.746             54.025            117.415
 Electronic               0.000              0.000              0.000
 Translational            0.889              2.981             41.649
 Rotational               0.889              2.981             31.743
 Vibrational            175.969             48.064             44.024
 Vibration     1          0.596              1.977              4.742
 Vibration     2          0.597              1.972              4.332
 Vibration     3          0.601              1.959              3.741
 Vibration     4          0.604              1.950              3.478
 Vibration     5          0.607              1.941              3.255
 Vibration     6          0.622              1.890              2.541
 Vibration     7          0.637              1.843              2.154
 Vibration     8          0.649              1.805              1.928
 Vibration     9          0.660              1.771              1.766
 Vibration    10          0.677              1.720              1.566
 Vibration    11          0.688              1.687              1.456
 Vibration    12          0.708              1.628              1.291
 Vibration    13          0.713              1.614              1.256
 Vibration    14          0.724              1.583              1.184
 Vibration    15          0.731              1.564              1.141
 Vibration    16          0.756              1.496              1.009
 Vibration    17          0.778              1.439              0.911
 Vibration    18          0.787              1.416              0.875
 Vibration    19          0.850              1.262              0.671
 Vibration    20          0.889              1.174              0.578
 Vibration    21          0.947              1.053              0.467

 Optimization completed.
    -- Stationary point found.
 Normal termination of Gaussian 16 at Sun Jan 31 10:21:59 2021.
