 Gaussian 16, Revision A.03,
 Gaussian 16:  ES64L-G16RevA.03 25-Dec-2016

 ----------------------------------------------------------------------
 # wB97XD def2tzvp, opt=(ts, noeigen, calcfc, maxcycles=70, maxstep=5),
  freq=noraman, scrf=(iefpcm, solvent=water)
 ----------------------------------------------------------------------

 ------------------------
 2_iteration/TS-984-2.out
 ------------------------
 Symbolic Z-matrix:
 Charge =  0 Multiplicity = 1

 SCF Done:  E(RwB97XD) =  -1477.36258670     A.U. after   15 cycles
 Optimization completed.
    -- Stationary point found.
 Normal termination of Gaussian 16 at Mon Mar  1 01:54:18 2021.

 ---------------------------------------------------------------------
 #N Geom=AllCheck Guess=TCheck SCRF=Check GenChk RwB97XD/def2TZVP Freq
 ---------------------------------------------------------------------

 Structure from the checkpoint file:  "/beegfs/scratch/user/q/tla25/Gau-23332.chk"
 ------------------------
 2_iteration/TS-984-2.out
 ------------------------
 Charge =  0 Multiplicity = 1

                         Standard orientation:
 ---------------------------------------------------------------------
 Center     Atomic      Atomic             Coordinates (Angstroms)
 Number     Number       Type             X           Y           Z
 ---------------------------------------------------------------------
      1          6           0        1.004000    1.058552    0.135460
      2          6           0       -0.339840    1.558991    0.210580
      3          8           0       -0.575491    2.758011    0.403000
      4          6           0        1.354321   -0.189077   -0.387600
      5          6           0        1.771002   -1.162117    2.176420
      6          1           0        1.505002   -1.877187    2.953170
      7          1           0        2.852612   -1.058186    2.131360
      8          1           0        1.326021   -0.193437    2.408420
      9          7           0        1.274002   -1.591927    0.875550
     10          1           0        1.782383   -2.390007    0.509190
     11          1           0        0.288732   -1.834098    0.913090
     12         17           0        3.059401   -0.381986   -0.844320
     13         17           0        0.353122   -0.976178   -1.625540
     14          6           0        2.085130    2.005693    0.608340
     15          1           0        2.892570    1.486474    1.123250
     16          1           0        2.531179    2.573813   -0.213600
     17          1           0        1.648789    2.723163    1.300740
     18          6           0       -1.538859    0.651861    0.141780
     19          6           0       -2.484680    0.814540   -0.864890
     20          6           0       -3.615759    0.016089   -0.897130
     21          6           0       -3.828938   -0.934871    0.093770
     22          6           0       -2.910038   -1.074090    1.122290
     23          6           0       -1.768669   -0.283599    1.143550
     24          1           0       -2.319750    1.556560   -1.636380
     25          1           0       -4.336339    0.135239   -1.696520
     26          1           0       -4.714678   -1.556691    0.068280
     27          1           0       -3.080598   -1.794900    1.911860
     28          1           0       -1.068909   -0.374379    1.966430
 ---------------------------------------------------------------------

 SCF Done:  E(RwB97XD) =  -1477.36258670     A.U. after    1 cycles

 The electronic state is 1-A.
 Alpha  occ. eigenvalues -- -101.71152-101.71041 -19.21327 -14.50408 -10.45634
 Alpha  occ. eigenvalues --  -10.36151 -10.32471 -10.30022 -10.29588 -10.29431
 Alpha  occ. eigenvalues --  -10.29332 -10.29243 -10.29217 -10.27688 -10.27170
 Alpha  occ. eigenvalues --   -9.59752  -9.59645  -7.34418  -7.34315  -7.33522
 Alpha  occ. eigenvalues --   -7.33481  -7.33406  -7.33376  -1.12092  -1.06627
 Alpha  occ. eigenvalues --   -1.00753  -0.96957  -0.93581  -0.88562  -0.86019
 Alpha  occ. eigenvalues --   -0.85514  -0.80053  -0.77527  -0.73497  -0.70922
 Alpha  occ. eigenvalues --   -0.68840  -0.65025  -0.63331  -0.60333  -0.59192
 Alpha  occ. eigenvalues --   -0.57565  -0.56252  -0.55286  -0.55095  -0.53293
 Alpha  occ. eigenvalues --   -0.51389  -0.50672  -0.49938  -0.49242  -0.48528
 Alpha  occ. eigenvalues --   -0.48003  -0.46269  -0.46088  -0.45000  -0.44173
 Alpha  occ. eigenvalues --   -0.42860  -0.42554  -0.41625  -0.39546  -0.39432
 Alpha  occ. eigenvalues --   -0.34325  -0.34169  -0.32050  -0.28266
 Alpha virt. eigenvalues --    0.02401   0.04328   0.04940   0.06615   0.08963
 Alpha virt. eigenvalues --    0.10380   0.13026   0.13458   0.14695   0.14885
 Alpha virt. eigenvalues --    0.15934   0.16515   0.16976   0.18280   0.19294

 Mulliken charges:
               1
     1  C   -0.294489
     2  C    0.266417
     3  O   -0.489674
     4  C    0.193663
     5  C   -0.330209
     6  H    0.175986
     7  H    0.171827
     8  H    0.168860
     9  N   -0.295281
    10  H    0.297856
    11  H    0.285776
    12  Cl  -0.064199
    13  Cl  -0.062105
    14  C   -0.386380
    15  H    0.133710
    16  H    0.129403
    17  H    0.132475
    18  C    0.169627
    19  C   -0.229791
    20  C   -0.136706
    21  C   -0.150156
    22  C   -0.133938
    23  C   -0.322394
    24  H    0.140317
    25  H    0.144530
    26  H    0.145934
    27  H    0.144255
    28  H    0.194687
 Sum of Mulliken charges =  -0.00000

 Dipole moment (field-independent basis, Debye):
    X=              2.1912    Y=             -9.7258    Z=              3.2796  Tot=             10.4952
 Quadrupole moment (field-independent basis, Debye-Ang):
   XX=            -94.7056   YY=           -110.6952   ZZ=            -95.7288
   XY=              1.6367   XZ=              9.0998   YZ=            -10.9250

  Exact polarizability: 261.857   0.097 242.600  13.459 -12.354 203.945
 Approx polarizability: 204.129   1.425 205.770  10.999 -10.135 177.795

 ******    1 imaginary frequencies (negative Signs) ******

                      1                      2                      3
                      A                      A                      A
 Frequencies --   -376.4467                41.2367                54.8826
 Red. masses --      6.0123                 6.1556                 5.1999
 Frc consts  --      0.5020                 0.0062                 0.0092
 IR Inten    --    930.9118                 2.7372                 5.0258

                      4                      5                      6
                      A                      A                      A
 Frequencies --     74.8745                75.4305               109.2666
 Red. masses --      3.3596                 5.2180                 3.1565
 Frc consts  --      0.0111                 0.0175                 0.0222
 IR Inten    --      1.8786                 3.9587                 5.9399

                      7                      8                      9
                      A                      A                      A
 Frequencies --    141.2988               161.5419               172.9390
 Red. masses --      1.6287                 2.1846                 5.2160
 Frc consts  --      0.0192                 0.0336                 0.0919
 IR Inten    --      2.7259                 0.9029                 3.1862

                     10                     11                     12
                      A                      A                      A
 Frequencies --    195.3123               203.2259               237.8945
 Red. masses --      4.8896                 1.1735                 3.1224
 Frc consts  --      0.1099                 0.0286                 0.1041
 IR Inten    --      5.8731                 3.6947                 4.8049

                     13                     14                     15
                      A                      A                      A
 Frequencies --    249.1345               275.9370               295.2153
 Red. masses --      5.1408                 7.2243                 4.4639
 Frc consts  --      0.1880                 0.3241                 0.2292
 IR Inten    --      3.8893                20.7462                 8.1068

                     16                     17                     18
                      A                      A                      A
 Frequencies --    334.3849               358.4341               389.8750
 Red. masses --      4.7209                 4.1803                 3.4782
 Frc consts  --      0.3110                 0.3164                 0.3115
 IR Inten    --     32.6455                 0.6166                11.9076

                     19                     20                     21
                      A                      A                      A
 Frequencies --    420.0673               426.8065               448.8324
 Red. masses --      3.3591                 4.5380                 9.2931
 Frc consts  --      0.3492                 0.4871                 1.1030
 IR Inten    --      3.0704                18.8078                23.1685

                     22                     23                     24
                      A                      A                      A
 Frequencies --    542.7925               581.6151               635.9391
 Red. masses --      5.8661                 3.8365                 6.4064
 Frc consts  --      1.0183                 0.7646                 1.5265
 IR Inten    --    155.4568                31.0275                 0.5100

                     25                     26                     27
                      A                      A                      A
 Frequencies --    659.0502               695.0932               731.9647
 Red. masses --      2.3871                 2.5072                 1.6950
 Frc consts  --      0.6109                 0.7137                 0.5351
 IR Inten    --     19.3467                54.1338                81.2470

                     28                     29                     30
                      A                      A                      A
 Frequencies --    763.1139               811.4204               814.7546
 Red. masses --      3.5379                 3.4742                 3.1677
 Frc consts  --      1.2139                 1.3477                 1.2389
 IR Inten    --     35.7586                59.3373                83.6376

                     31                     32                     33
                      A                      A                      A
 Frequencies --    837.5392               885.5605               956.8372
 Red. masses --      4.9300                 1.2584                 1.6948
 Frc consts  --      2.0376                 0.5815                 0.9142
 IR Inten    --    246.9389                 0.0673                 4.1486

                     34                     35                     36
                      A                      A                      A
 Frequencies --    977.4316              1013.2075              1019.5655
 Red. masses --      2.0950                 1.4131                 1.6561
 Frc consts  --      1.1792                 0.8547                 1.0143
 IR Inten    --    107.2043                 5.6342                 9.1535

                     37                     38                     39
                      A                      A                      A
 Frequencies --   1027.2661              1032.4870              1041.5236
 Red. masses --      2.4834                 1.4615                 1.6964
 Frc consts  --      1.5441                 0.9180                 1.0842
 IR Inten    --      9.6265                 4.5104               320.1707

                     40                     41                     42
                      A                      A                      A
 Frequencies --   1058.0149              1063.1141              1067.1140
 Red. masses --      1.2293                 1.8585                 1.4166
 Frc consts  --      0.8108                 1.2376                 0.9505
 IR Inten    --     44.9170                25.7636                 9.8167

                     43                     44                     45
                      A                      A                      A
 Frequencies --   1085.2165              1111.4758              1184.4443
 Red. masses --      4.0451                 1.5398                 1.1415
 Frc consts  --      2.8068                 1.1208                 0.9435
 IR Inten    --     71.3779                13.1304                 0.1974

                     46                     47                     48
                      A                      A                      A
 Frequencies --   1204.9823              1211.6961              1231.2147
 Red. masses --      1.1792                 3.2226                 1.3873
 Frc consts  --      1.0088                 2.7877                 1.2391
 IR Inten    --      0.8695                 2.8749                40.7452

                     49                     50                     51
                      A                      A                      A
 Frequencies --   1320.7763              1339.8255              1356.4668
 Red. masses --      4.0445                 1.3180                 1.5679
 Frc consts  --      4.1569                 1.3940                 1.6997
 IR Inten    --     23.9489                 3.7305                37.8485

                     52                     53                     54
                      A                      A                      A
 Frequencies --   1374.9611              1391.7004              1420.6259
 Red. masses --      4.7675                 6.1892                 1.2425
 Frc consts  --      5.3103                 7.0628                 1.4774
 IR Inten    --   1292.5733               251.9826                68.0991

                     55                     56                     57
                      A                      A                      A
 Frequencies --   1453.3982              1485.0312              1489.3146
 Red. masses --      1.2008                 1.0750                 2.0843
 Frc consts  --      1.4944                 1.3967                 2.7238
 IR Inten    --      9.3859                25.8788                 7.9345

                     58                     59                     60
                      A                      A                      A
 Frequencies --   1494.9472              1498.4522              1504.4630
 Red. masses --      1.0462                 1.0699                 1.0505
 Frc consts  --      1.3775                 1.4154                 1.4008
 IR Inten    --      0.5954                91.5311                80.8172

                     61                     62                     63
                      A                      A                      A
 Frequencies --   1541.5632              1625.6985              1636.4083
 Red. masses --      2.3587                10.3445                 1.0948
 Frc consts  --      3.3025                16.1079                 1.7273
 IR Inten    --      5.7911               707.4845                34.2083

                     64                     65                     66
                      A                      A                      A
 Frequencies --   1650.5647              1674.8791              3040.6821
 Red. masses --      5.9074                 5.8996                 1.0474
 Frc consts  --      9.4823                 9.7509                 5.7055
 IR Inten    --     20.9808                 0.9723                79.3737

                     67                     68                     69
                      A                      A                      A
 Frequencies --   3069.7171              3114.1236              3149.7348
 Red. masses --      1.0340                 1.0894                 1.1035
 Frc consts  --      5.7410                 6.2245                 6.4501
 IR Inten    --     23.3360                34.2746                 7.5327

                     70                     71                     72
                      A                      A                      A
 Frequencies --   3154.2888              3175.5448              3189.5187
 Red. masses --      1.1012                 1.1059                 1.0872
 Frc consts  --      6.4554                 6.5703                 6.5163
 IR Inten    --     12.2083                 8.4097                 8.5216

                     73                     74                     75
                      A                      A                      A
 Frequencies --   3195.9762              3204.9850              3212.8863
 Red. masses --      1.0871                 1.0909                 1.0951
 Frc consts  --      6.5424                 6.6021                 6.6603
 IR Inten    --      0.3235                 8.8711                37.2051

                     76                     77                     78
                      A                      A                      A
 Frequencies --   3222.6572              3505.6236              3590.5111
 Red. masses --      1.0988                 1.0510                 1.0969
 Frc consts  --      6.7237                 7.6101                 8.3316
 IR Inten    --     17.1834                63.3457               106.5984

 - Thermochemistry -
 -------------------
 Temperature   298.150 Kelvin.  Pressure   1.00000 Atm.
 Atom     1 has atomic number  6 and mass  12.00000

 Molecular mass:   245.03742 amu.
 Principal axes and moments of inertia in atomic units:
                           1         2         3
     Eigenvalues --  2353.182385100.221895474.26792
           X            0.99937   0.02385   0.02614
           Y           -0.01985   0.98940  -0.14384
           Z           -0.02929   0.14323   0.98926
 This molecule is an asymmetric top.
 Rotational symmetry number  1.
 Warning -- assumption of classical behavior for rotation
           may cause significant error
 Rotational temperatures (Kelvin)      0.03681     0.01698     0.01582
 Rotational constants (GHZ):           0.76694     0.35386     0.32968
    1 imaginary frequencies ignored.
 Zero-point vibrational energy     580167.0 (Joules/Mol)
                                  138.66324 (Kcal/Mol)
 Warning -- explicit consideration of  22 degrees of freedom as
           vibrations may cause significant error
 Vibrational temperatures:     59.33    78.96   107.73   108.53   157.21
          (Kelvin)            203.30   232.42   248.82   281.01   292.40
                              342.28   358.45   397.01   424.75   481.11
                              515.71   560.94   604.38   614.08   645.77
                              780.96   836.81   914.97   948.23  1000.08
                             1053.13  1097.95  1167.45  1172.25  1205.03
                             1274.12  1376.68  1406.31  1457.78  1466.93
                             1478.01  1485.52  1498.52  1522.25  1529.58
                             1535.34  1561.38  1599.17  1704.15  1733.70
                             1743.36  1771.44  1900.30  1927.71  1951.65
                             1978.26  2002.35  2043.96  2091.12  2136.63
                             2142.79  2150.90  2155.94  2164.59  2217.97
                             2339.02  2354.43  2374.79  2409.78  4374.86
                             4416.64  4480.53  4531.77  4538.32  4568.90
                             4589.01  4598.30  4611.26  4622.63  4636.68
                             5043.81  5165.94

 Zero-point correction=                           0.220974 (Hartree/Particle)
 Thermal correction to Energy=                    0.236302
 Thermal correction to Enthalpy=                  0.237246
 Thermal correction to Gibbs Free Energy=         0.177722
 Sum of electronic and zero-point Energies=          -1477.141613
 Sum of electronic and thermal Energies=             -1477.126285
 Sum of electronic and thermal Enthalpies=           -1477.125341
 Sum of electronic and thermal Free Energies=        -1477.184864

                     E (Thermal)             CV                S
                      KCal/Mol        Cal/Mol-Kelvin    Cal/Mol-Kelvin
 Total                  148.281             56.044            125.277
 Electronic               0.000              0.000              0.000
 Translational            0.889              2.981             42.390
 Rotational               0.889              2.981             32.552
 Vibrational            146.504             50.082             50.336
 Vibration     1          0.594              1.981              5.199
 Vibration     2          0.596              1.976              4.633
 Vibration     3          0.599              1.966              4.021
 Vibration     4          0.599              1.965              4.006
 Vibration     5          0.606              1.942              3.282
 Vibration     6          0.615              1.912              2.786
 Vibration     7          0.622              1.890              2.532
 Vibration     8          0.626              1.876              2.403
 Vibration     9          0.636              1.846              2.177
 Vibration    10          0.639              1.835              2.104
 Vibration    11          0.656              1.783              1.819
 Vibration    12          0.662              1.764              1.737
 Vibration    13          0.678              1.718              1.559
 Vibration    14          0.689              1.683              1.444
 Vibration    15          0.716              1.607              1.239
 Vibration    16          0.733              1.558              1.129
 Vibration    17          0.758              1.492              1.001
 Vibration    18          0.783              1.427              0.892
 Vibration    19          0.788              1.412              0.869
 Vibration    20          0.808              1.363              0.799
 Vibration    21          0.898              1.155              0.559
 Vibration    22          0.938              1.071              0.482

 Optimization completed.
    -- Stationary point found.
 Normal termination of Gaussian 16 at Mon Mar  1 02:53:56 2021.
