 Gaussian 16, Revision A.03,
 Gaussian 16:  ES64L-G16RevA.03 25-Dec-2016

 ----------------------------------------------------------------------
 # wB97XD def2tzvp, opt=(ts, noeigen, calcfc, maxcycles=70, maxstep=1),
  freq=noraman, scrf=(iefpcm, solvent=water)
 ----------------------------------------------------------------------

 ------------------------
 0_iteration/TS-916-0.out
 ------------------------
 Symbolic Z-matrix:
 Charge =  0 Multiplicity = 1

 SCF Done:  E(RwB97XD) =  -1360.87619028     A.U. after   15 cycles
 SCF Done:  E(RwB97XD) =  -1360.87614543     A.U. after   10 cycles
 SCF Done:  E(RwB97XD) =  -1360.87610579     A.U. after   10 cycles
 SCF Done:  E(RwB97XD) =  -1360.87607149     A.U. after   10 cycles
 SCF Done:  E(RwB97XD) =  -1360.87604314     A.U. after   10 cycles
 SCF Done:  E(RwB97XD) =  -1360.87602170     A.U. after   10 cycles
 SCF Done:  E(RwB97XD) =  -1360.87600885     A.U. after   10 cycles
 SCF Done:  E(RwB97XD) =  -1360.87600835     A.U. after   10 cycles
 SCF Done:  E(RwB97XD) =  -1360.87603032     A.U. after   10 cycles
 SCF Done:  E(RwB97XD) =  -1360.87608464     A.U. after   10 cycles
 SCF Done:  E(RwB97XD) =  -1360.87982094     A.U. after    9 cycles
 SCF Done:  E(RwB97XD) =  -1360.87990219     A.U. after    9 cycles
 SCF Done:  E(RwB97XD) =  -1360.87996454     A.U. after    9 cycles
 SCF Done:  E(RwB97XD) =  -1360.88001207     A.U. after    9 cycles
 SCF Done:  E(RwB97XD) =  -1360.88004600     A.U. after    9 cycles
 SCF Done:  E(RwB97XD) =  -1360.88006320     A.U. after    9 cycles
 SCF Done:  E(RwB97XD) =  -1360.88006605     A.U. after    8 cycles
 SCF Done:  E(RwB97XD) =  -1360.88006610     A.U. after    7 cycles
 SCF Done:  E(RwB97XD) =  -1360.88006616     A.U. after    7 cycles
 Optimization completed.
    -- Stationary point found.
 Normal termination of Gaussian 16 at Sat Feb 27 22:08:42 2021.

 ---------------------------------------------------------------------
 #N Geom=AllCheck Guess=TCheck SCRF=Check GenChk RwB97XD/def2TZVP Freq
 ---------------------------------------------------------------------

 Structure from the checkpoint file:  "/beegfs/scratch/user/q/tla25/Gau-17815.chk"
 ------------------------
 0_iteration/TS-916-0.out
 ------------------------
 Charge =  0 Multiplicity = 1

                         Standard orientation:
 ---------------------------------------------------------------------
 Center     Atomic      Atomic             Coordinates (Angstroms)
 Number     Number       Type             X           Y           Z
 ---------------------------------------------------------------------
      1          6           0       -0.411545    0.305050   -0.156367
      2          6           0       -1.615081   -0.479511   -0.147248
      3          8           0       -1.703957   -1.661764   -0.445617
      4          6           0        0.851919   -0.221271   -0.432899
      5          6           0        3.037072   -1.128264    1.360822
      6          1           0        3.384857   -1.162309    2.393922
      7          1           0        3.035605   -2.137004    0.954435
      8          1           0        3.713867   -0.506796    0.777489
      9          7           0        1.687533   -0.570505    1.275627
     10          1           0        1.005790   -1.174565    1.721540
     11          1           0        1.633655    0.334845    1.729861
     12         17           0        2.060523    0.940425   -1.047037
     13          6           0        1.033722   -1.561829   -1.087506
     14          1           0        0.544187   -2.340915   -0.511464
     15          1           0        0.581653   -1.540903   -2.078631
     16          1           0        2.093508   -1.781988   -1.193365
     17         17           0       -0.502397    1.949712    0.452937
     18          8           0       -2.705729    0.227798    0.215895
     19          6           0       -3.937253   -0.483166    0.219434
     20          1           0       -4.691054    0.236795    0.527803
     21          1           0       -4.171581   -0.865229   -0.774341
     22          1           0       -3.906889   -1.315039    0.923434
 ---------------------------------------------------------------------

 SCF Done:  E(RwB97XD) =  -1360.88006616     A.U. after    1 cycles

 The electronic state is 1-A.
 Alpha  occ. eigenvalues -- -101.70040-101.68918 -19.28513 -19.21679 -14.48996
 Alpha  occ. eigenvalues --  -10.41287 -10.40711 -10.32764 -10.32032 -10.31662
 Alpha  occ. eigenvalues --  -10.28940  -9.58644  -9.57448  -7.33278  -7.32439
 Alpha  occ. eigenvalues --   -7.32382  -7.32089  -7.31232  -7.31215  -1.20147
 Alpha  occ. eigenvalues --   -1.10438  -1.04849  -0.99066  -0.94399  -0.86741
 Alpha  occ. eigenvalues --   -0.83260  -0.79888  -0.77934  -0.69808  -0.63891
 Alpha  occ. eigenvalues --   -0.63364  -0.59587  -0.57693  -0.57101  -0.56193
 Alpha  occ. eigenvalues --   -0.55770  -0.54498  -0.51308  -0.50328  -0.48820
 Alpha  occ. eigenvalues --   -0.48176  -0.47822  -0.47206  -0.45213  -0.43933
 Alpha  occ. eigenvalues --   -0.42142  -0.40937  -0.39527  -0.38735  -0.38264
 Alpha  occ. eigenvalues --   -0.35040  -0.27922
 Alpha virt. eigenvalues --    0.04299   0.07433   0.10107   0.13157   0.13543
 Alpha virt. eigenvalues --    0.14491   0.15257   0.15570   0.16955   0.17474
 Alpha virt. eigenvalues --    0.19020   0.19321   0.19896   0.20119   0.20993

 Mulliken charges:
               1
     1  C   -0.133196
     2  C    0.409312
     3  O   -0.501604
     4  C    0.080143
     5  C   -0.289733
     6  H    0.158954
     7  H    0.163327
     8  H    0.150846
     9  N   -0.333598
    10  H    0.288166
    11  H    0.283437
    12  Cl  -0.108000
    13  C   -0.372386
    14  H    0.153917
    15  H    0.155431
    16  H    0.156099
    17  Cl  -0.162510
    18  O   -0.302520
    19  C   -0.191513
    20  H    0.139541
    21  H    0.128098
    22  H    0.127790
 Sum of Mulliken charges =  -0.00000

 Dipole moment (field-independent basis, Debye):
    X=              4.8582    Y=             -3.0785    Z=              4.2744  Tot=              7.1659
 Quadrupole moment (field-independent basis, Debye-Ang):
   XX=            -66.1597   YY=            -85.6126   ZZ=            -73.5955
   XY=             -6.5871   XZ=              5.8693   YZ=             -3.2710

  Exact polarizability: 200.909  -0.690 153.832   5.021   1.147 130.656
 Approx polarizability: 147.382   1.384 135.081   1.999   1.896 114.348

 ******    1 imaginary frequencies (negative Signs) ******

                      1                      2                      3
                      A                      A                      A
 Frequencies --   -354.1721                45.0000                54.8501
 Red. masses --      6.2749                 5.2374                 5.2106
 Frc consts  --      0.4638                 0.0062                 0.0092
 IR Inten    --    878.5349                 1.6007                 6.7997

                      4                      5                      6
                      A                      A                      A
 Frequencies --     84.4864               115.5028               136.4151
 Red. masses --      1.9605                 4.7059                 2.7345
 Frc consts  --      0.0082                 0.0370                 0.0300
 IR Inten    --      1.3192                 6.7053                 6.2169

                      7                      8                      9
                      A                      A                      A
 Frequencies --    160.6257               172.4701               181.0909
 Red. masses --      2.3733                 1.2572                 1.7912
 Frc consts  --      0.0361                 0.0220                 0.0346
 IR Inten    --      3.5040                 0.7456                10.2780

                     10                     11                     12
                      A                      A                      A
 Frequencies --    213.1877               230.1125               257.6734
 Red. masses --      9.9567                 2.6691                 2.0798
 Frc consts  --      0.2666                 0.0833                 0.0814
 IR Inten    --      5.7346                19.4094                 2.2609

                     13                     14                     15
                      A                      A                      A
 Frequencies --    277.9331               320.6256               335.5553
 Red. masses --      1.7141                 3.8619                 3.2740
 Frc consts  --      0.0780                 0.2339                 0.2172
 IR Inten    --      1.1706                21.0177                 3.5060

                     16                     17                     18
                      A                      A                      A
 Frequencies --    354.7807               369.6962               460.3672
 Red. masses --      3.4690                 4.5581                11.5508
 Frc consts  --      0.2573                 0.3670                 1.4424
 IR Inten    --     27.1013                 2.8541                10.4750

                     19                     20                     21
                      A                      A                      A
 Frequencies --    486.8663               523.5641               658.9287
 Red. masses --      5.5673                 5.0218                 1.9082
 Frc consts  --      0.7775                 0.8110                 0.4881
 IR Inten    --    125.2745                46.3997                32.5398

                     22                     23                     24
                      A                      A                      A
 Frequencies --    708.9473               781.6156               800.9782
 Red. masses --      2.3183                10.8664                 4.6651
 Frc consts  --      0.6865                 3.9113                 1.7634
 IR Inten    --    101.3388                56.2144                62.0902

                     25                     26                     27
                      A                      A                      A
 Frequencies --    981.2369              1003.8542              1026.5447
 Red. masses --      4.4875                 1.9567                 1.3212
 Frc consts  --      2.5457                 1.1618                 0.8203
 IR Inten    --     26.1315               171.0934               142.8972

                     28                     29                     30
                      A                      A                      A
 Frequencies --   1049.1759              1061.8324              1078.9823
 Red. masses --      1.3398                 1.7695                 2.5985
 Frc consts  --      0.8689                 1.1755                 1.7824
 IR Inten    --     16.7001               137.3821                19.4091

                     31                     32                     33
                      A                      A                      A
 Frequencies --   1109.6402              1153.3358              1182.5643
 Red. masses --      2.4872                 4.5016                 1.2824
 Frc consts  --      1.8044                 3.5280                 1.0566
 IR Inten    --    287.2551                49.0386                 1.6042

                     34                     35                     36
                      A                      A                      A
 Frequencies --   1217.8930              1235.4281              1309.7747
 Red. masses --      1.6067                 1.3794                 6.6011
 Frc consts  --      1.4041                 1.2404                 6.6721
 IR Inten    --    163.7694                36.1790               881.1121

                     37                     38                     39
                      A                      A                      A
 Frequencies --   1347.2407              1412.8895              1432.6635
 Red. masses --      1.3014                 1.6570                 2.0889
 Frc consts  --      1.3917                 1.9489                 2.5262
 IR Inten    --      1.0001               455.9420               391.0252

                     40                     41                     42
                      A                      A                      A
 Frequencies --   1455.1848              1464.1275              1480.3589
 Red. masses --      1.1462                 1.1445                 1.1848
 Frc consts  --      1.4301                 1.4456                 1.5298
 IR Inten    --     34.2000                58.1883               103.6809

                     43                     44                     45
                      A                      A                      A
 Frequencies --   1482.2551              1485.9589              1495.9203
 Red. masses --      1.0565                 1.1067                 1.0493
 Frc consts  --      1.3676                 1.4398                 1.3834
 IR Inten    --     18.7680                59.7131                12.9369

                     46                     47                     48
                      A                      A                      A
 Frequencies --   1497.4723              1506.1889              1641.0909
 Red. masses --      1.0879                 1.0374                 1.0880
 Frc consts  --      1.4373                 1.3866                 1.7264
 IR Inten    --     14.6092                21.5172                51.8182

                     49                     50                     51
                      A                      A                      A
 Frequencies --   1697.5941              3062.8618              3071.0531
 Red. masses --     10.5885                 1.0308                 1.0351
 Frc consts  --     17.9785                 5.6972                 5.7518
 IR Inten    --    595.9565                62.0965                41.1524

                     52                     53                     54
                      A                      A                      A
 Frequencies --   3087.0158              3138.8159              3149.9076
 Red. masses --      1.0367                 1.1067                 1.1026
 Frc consts  --      5.8210                 6.4241                 6.4459
 IR Inten    --      9.2984                37.5767                11.5085

                     55                     56                     57
                      A                      A                      A
 Frequencies --   3163.1929              3172.1483              3175.6310
 Red. masses --      1.1020                 1.1054                 1.1059
 Frc consts  --      6.4967                 6.5538                 6.5709
 IR Inten    --     12.4127                25.2571                11.2061

                     58                     59                     60
                      A                      A                      A
 Frequencies --   3193.6620              3517.6103              3597.5926
 Red. masses --      1.1030                 1.0511                 1.0963
 Frc consts  --      6.6283                 7.6630                 8.3597
 IR Inten    --      2.4014                25.6620                48.7201

 - Thermochemistry -
 -------------------
 Temperature   298.150 Kelvin.  Pressure   1.00000 Atm.
 Atom     1 has atomic number  6 and mass  12.00000

 Molecular mass:   199.01668 amu.
 Principal axes and moments of inertia in atomic units:
                           1         2         3
     Eigenvalues --  1492.430213371.570683916.24844
           X            0.99953  -0.02292   0.02056
           Y            0.02307   0.99971  -0.00699
           Z           -0.02039   0.00746   0.99976
 This molecule is an asymmetric top.
 Rotational symmetry number  1.
 Warning -- assumption of classical behavior for rotation
           may cause significant error
 Rotational temperatures (Kelvin)      0.05804     0.02569     0.02212
 Rotational constants (GHZ):           1.20926     0.53528     0.46083
    1 imaginary frequencies ignored.
 Zero-point vibrational energy     453803.2 (Joules/Mol)
                                  108.46157 (Kcal/Mol)
 Warning -- explicit consideration of  19 degrees of freedom as
           vibrations may cause significant error
 Vibrational temperatures:     64.75    78.92   121.56   166.18   196.27
          (Kelvin)            231.10   248.15   260.55   306.73   331.08
                              370.73   399.88   461.31   482.79   510.45
                              531.91   662.37   700.49   753.29   948.05
                             1020.02  1124.57  1152.43  1411.78  1444.32
                             1476.97  1509.53  1527.74  1552.41  1596.52
                             1659.39  1701.45  1752.28  1777.51  1884.47
                             1938.38  2032.83  2061.28  2093.69  2106.55
                             2129.91  2132.63  2137.96  2152.30  2154.53
                             2167.07  2361.16  2442.46  4406.78  4418.56
                             4441.53  4516.06  4532.01  4551.13  4564.01
                             4569.02  4594.97  5061.06  5176.13

 Zero-point correction=                           0.172845 (Hartree/Particle)
 Thermal correction to Energy=                    0.186220
 Thermal correction to Enthalpy=                  0.187165
 Thermal correction to Gibbs Free Energy=         0.132140
 Sum of electronic and zero-point Energies=          -1360.707222
 Sum of electronic and thermal Energies=             -1360.693846
 Sum of electronic and thermal Enthalpies=           -1360.692902
 Sum of electronic and thermal Free Energies=        -1360.747926

                     E (Thermal)             CV                S
                      KCal/Mol        Cal/Mol-Kelvin    Cal/Mol-Kelvin
 Total                  116.855             45.995            115.808
 Electronic               0.000              0.000              0.000
 Translational            0.889              2.981             41.769
 Rotational               0.889              2.981             31.355
 Vibrational            115.078             40.033             42.683
 Vibration     1          0.595              1.979              5.026
 Vibration     2          0.596              1.976              4.634
 Vibration     3          0.601              1.960              3.784
 Vibration     4          0.608              1.937              3.174
 Vibration     5          0.614              1.917              2.854
 Vibration     6          0.622              1.891              2.542
 Vibration     7          0.626              1.876              2.408
 Vibration     8          0.630              1.865              2.317
 Vibration     9          0.644              1.821              2.016
 Vibration    10          0.652              1.795              1.878
 Vibration    11          0.667              1.750              1.677
 Vibration    12          0.679              1.714              1.546
 Vibration    13          0.706              1.634              1.307
 Vibration    14          0.717              1.604              1.233
 Vibration    15          0.731              1.565              1.145
 Vibration    16          0.742              1.534              1.081
 Vibration    17          0.818              1.338              0.765
 Vibration    18          0.843              1.279              0.692
 Vibration    19          0.879              1.198              0.602

 Optimization completed.
    -- Stationary point found.
 Normal termination of Gaussian 16 at Sat Feb 27 22:28:51 2021.
