 Gaussian 16, Revision A.03,
 Gaussian 16:  ES64L-G16RevA.03 25-Dec-2016

 ----------------------------------------------------------------------
 # wB97XD def2tzvp, opt=(ts, noeigen, calcfc, maxcycles=70, maxstep=8),
  freq=noraman, scrf=(iefpcm, solvent=water)
 ----------------------------------------------------------------------

 -----------------------
 1_iteration/TS-90-1.out
 -----------------------
 Symbolic Z-matrix:
 Charge =  0 Multiplicity = 1

 SCF Done:  E(RwB97XD) =  -597.480409581     A.U. after   15 cycles
 SCF Done:  E(RwB97XD) =  -597.480429830     A.U. after   12 cycles
 SCF Done:  E(RwB97XD) =  -597.480527592     A.U. after   10 cycles
 SCF Done:  E(RwB97XD) =  -597.480866680     A.U. after   12 cycles
 SCF Done:  E(RwB97XD) =  -597.481233417     A.U. after   12 cycles
 SCF Done:  E(RwB97XD) =  -597.481404553     A.U. after   12 cycles
 SCF Done:  E(RwB97XD) =  -597.481435571     A.U. after   10 cycles
 SCF Done:  E(RwB97XD) =  -597.481438326     A.U. after   10 cycles
 SCF Done:  E(RwB97XD) =  -597.481438516     A.U. after    7 cycles
 SCF Done:  E(RwB97XD) =  -597.481438708     A.U. after    8 cycles
 SCF Done:  E(RwB97XD) =  -597.481438701     A.U. after    6 cycles
 Optimization completed.
    -- Stationary point found.
 Normal termination of Gaussian 16 at Sun Jan 31 02:51:28 2021.

 ---------------------------------------------------------------------
 #N Geom=AllCheck Guess=TCheck SCRF=Check GenChk RwB97XD/def2TZVP Freq
 ---------------------------------------------------------------------

 Structure from the checkpoint file:  "/beegfs/scratch/user/q/tla25/Gau-15605.chk"
 -----------------------
 1_iteration/TS-90-1.out
 -----------------------
 Charge =  0 Multiplicity = 1

                         Standard orientation:
 ---------------------------------------------------------------------
 Center     Atomic      Atomic             Coordinates (Angstroms)
 Number     Number       Type             X           Y           Z
 ---------------------------------------------------------------------
      1          6           0       -1.363978   -0.864935    0.136288
      2          6           0       -2.763078   -0.673141    0.093260
      3          8           0       -3.343635    0.424441    0.235539
      4          6           0       -0.425945    0.148138    0.440066
      5          6           0        0.184140    2.637350   -1.144947
      6          1           0        0.004975    3.183900   -2.072798
      7          1           0       -0.033488    3.295542   -0.306379
      8          1           0        1.234341    2.348164   -1.101215
      9          7           0       -0.642382    1.440629   -1.049345
     10          1           0       -1.630418    1.646008   -0.936186
     11          1           0       -0.538878    0.844241   -1.860381
     12          6           0        1.017875   -0.213474    0.252798
     13          6           0        1.423569   -0.912546   -0.885572
     14          6           0        2.751650   -1.247570   -1.082947
     15          6           0        3.707246   -0.894654   -0.139029
     16          6           0        3.319704   -0.200638    0.995311
     17          6           0        1.988105    0.143604    1.185243
     18          1           0        0.691014   -1.193127   -1.632407
     19          1           0        3.042641   -1.783861   -1.977263
     20          1           0        4.746547   -1.157015   -0.290582
     21          1           0        4.054978    0.079934    1.738783
     22          1           0        1.712406    0.686180    2.078783
     23          6           0       -0.724504    1.116373    1.559048
     24          1           0       -0.571046    0.600321    2.509384
     25          1           0       -0.070494    1.987206    1.542973
     26          1           0       -1.761469    1.432490    1.509033
     27          1           0       -0.986676   -1.810079   -0.228531
     28          6           0       -3.624996   -1.888595   -0.196346
     29          1           0       -3.045262   -2.800070   -0.337588
     30          1           0       -4.316843   -2.035754    0.635846
     31          1           0       -4.225304   -1.703492   -1.089407
 ---------------------------------------------------------------------

 SCF Done:  E(RwB97XD) =  -597.481438701     A.U. after    1 cycles

 The electronic state is 1-A.
 Alpha  occ. eigenvalues --  -19.19336 -14.46974 -10.35133 -10.34039 -10.31365
 Alpha  occ. eigenvalues --  -10.30465 -10.29400 -10.29391 -10.29327 -10.29282
 Alpha  occ. eigenvalues --  -10.29238 -10.27259 -10.26575 -10.24189  -1.09652
 Alpha  occ. eigenvalues --   -1.02731  -0.97391  -0.91245  -0.85622  -0.84556
 Alpha  occ. eigenvalues --   -0.82986  -0.79077  -0.77585  -0.72579  -0.70510
 Alpha  occ. eigenvalues --   -0.66392  -0.62634  -0.61081  -0.59230  -0.56323
 Alpha  occ. eigenvalues --   -0.55796  -0.55038  -0.54311  -0.53944  -0.51543
 Alpha  occ. eigenvalues --   -0.51023  -0.50712  -0.49334  -0.48746  -0.47513
 Alpha  occ. eigenvalues --   -0.46884  -0.46600  -0.45701  -0.44627  -0.42810
 Alpha  occ. eigenvalues --   -0.42190  -0.42084  -0.40140  -0.34146  -0.33607
 Alpha  occ. eigenvalues --   -0.31092  -0.27272
 Alpha virt. eigenvalues --    0.01571   0.04926   0.07919   0.10501   0.12824
 Alpha virt. eigenvalues --    0.13461   0.13617   0.15424   0.15519   0.16421
 Alpha virt. eigenvalues --    0.16862   0.17667   0.18026   0.18938   0.19336

 Mulliken charges:
               1
     1  C   -0.510873
     2  C    0.353600
     3  O   -0.586610
     4  C    0.304525
     5  C   -0.289403
     6  H    0.150222
     7  H    0.152935
     8  H    0.151933
     9  N   -0.351184
    10  H    0.272305
    11  H    0.265933
    12  C    0.113913
    13  C   -0.270381
    14  C   -0.154123
    15  C   -0.137691
    16  C   -0.145903
    17  C   -0.221463
    18  H    0.166092
    19  H    0.144047
    20  H    0.145992
    21  H    0.144134
    22  H    0.159678
    23  C   -0.443861
    24  H    0.147548
    25  H    0.141305
    26  H    0.160949
    27  H    0.139198
    28  C   -0.378623
    29  H    0.121097
    30  H    0.128691
    31  H    0.126017
 Sum of Mulliken charges =  -0.00000

 Dipole moment (field-independent basis, Debye):
    X=              6.2268    Y=              2.0175    Z=             -3.0489  Tot=              7.2207
 Quadrupole moment (field-independent basis, Debye-Ang):
   XX=            -99.7251   YY=            -79.2978   ZZ=            -77.5268
   XY=              2.7875   XZ=              4.3204   YZ=              0.5968

  Exact polarizability: 282.736   9.106 196.229  -0.388  11.056 190.777
 Approx polarizability: 205.104  -1.358 160.013   1.456  11.685 163.328

 ******    1 imaginary frequencies (negative Signs) ******

                      1                      2                      3
                      A                      A                      A
 Frequencies --   -347.0841                34.5314                51.2383
 Red. masses --      5.6877                 3.0976                 3.5688
 Frc consts  --      0.4037                 0.0022                 0.0055
 IR Inten    --    642.8916                16.1581                 1.8843

                      4                      5                      6
                      A                      A                      A
 Frequencies --     73.8314                78.9038               102.4102
 Red. masses --      3.6112                 2.0161                 1.5474
 Frc consts  --      0.0116                 0.0074                 0.0096
 IR Inten    --     15.4457                 8.2166                 4.6527

                      7                      8                      9
                      A                      A                      A
 Frequencies --    104.6849               126.0024               181.5830
 Red. masses --      2.2715                 2.0349                 1.4242
 Frc consts  --      0.0147                 0.0190                 0.0277
 IR Inten    --      5.5587                 1.2581                 8.1225

                     10                     11                     12
                      A                      A                      A
 Frequencies --    219.7996               244.8782               276.6301
 Red. masses --      2.9929                 3.0692                 2.9356
 Frc consts  --      0.0852                 0.1084                 0.1324
 IR Inten    --     19.5519                 4.0734                 5.8733

                     13                     14                     15
                      A                      A                      A
 Frequencies --    296.2507               321.2701               332.9086
 Red. masses --      1.9559                 2.1835                 2.7700
 Frc consts  --      0.1011                 0.1328                 0.1809
 IR Inten    --      1.3798                 0.6017                27.9928

                     16                     17                     18
                      A                      A                      A
 Frequencies --    367.0157               422.1281               425.6995
 Red. masses --      3.1121                 2.9317                 2.8417
 Frc consts  --      0.2470                 0.3078                 0.3034
 IR Inten    --      4.6858                11.4289                17.1414

                     19                     20                     21
                      A                      A                      A
 Frequencies --    487.9800               531.2909               562.6151
 Red. masses --      3.2188                 3.9282                 2.7973
 Frc consts  --      0.4516                 0.6533                 0.5217
 IR Inten    --     28.6904                14.5606                77.3003

                     22                     23                     24
                      A                      A                      A
 Frequencies --    636.1091               646.2777               655.0332
 Red. masses --      5.7168                 1.9688                 2.2584
 Frc consts  --      1.3629                 0.4845                 0.5709
 IR Inten    --      0.1815                 6.3531                58.8289

                     25                     26                     27
                      A                      A                      A
 Frequencies --    666.0933               724.7646               727.5447
 Red. masses --      2.2758                 1.3438                 1.5744
 Frc consts  --      0.5949                 0.4159                 0.4910
 IR Inten    --     40.5861               166.1420                95.2442

                     28                     29                     30
                      A                      A                      A
 Frequencies --    791.7495               800.4758               880.5240
 Red. masses --      3.6358                 2.0715                 1.2449
 Frc consts  --      1.3429                 0.7821                 0.5687
 IR Inten    --     48.0636                10.7103                 0.8065

                     31                     32                     33
                      A                      A                      A
 Frequencies --    917.8144               966.6959               985.5100
 Red. masses --      3.6272                 1.4526                 2.2744
 Frc consts  --      1.8002                 0.7998                 1.3015
 IR Inten    --     91.1142                 1.5635                11.3021

                     34                     35                     36
                      A                      A                      A
 Frequencies --   1003.2090              1006.0046              1016.5923
 Red. masses --      1.2616                 1.1658                 1.3414
 Frc consts  --      0.7481                 0.6951                 0.8168
 IR Inten    --     54.2657               144.5354                11.2768

                     37                     38                     39
                      A                      A                      A
 Frequencies --   1025.6272              1026.8459              1034.5714
 Red. masses --      5.1050                 1.2937                 1.2983
 Frc consts  --      3.1639                 0.8037                 0.8187
 IR Inten    --      1.4214                37.8494                 3.0875

                     40                     41                     42
                      A                      A                      A
 Frequencies --   1049.1393              1057.6063              1062.7345
 Red. masses --      1.7869                 1.6834                 2.2373
 Frc consts  --      1.1588                 1.1094                 1.4887
 IR Inten    --     10.5494                51.7401                31.2008

                     43                     44                     45
                      A                      A                      A
 Frequencies --   1088.3239              1115.0769              1123.9302
 Red. masses --      3.6203                 1.8759                 1.6905
 Frc consts  --      2.5265                 1.3743                 1.2582
 IR Inten    --     40.1135                10.4471                 7.4940

                     46                     47                     48
                      A                      A                      A
 Frequencies --   1186.3945              1198.6605              1217.4490
 Red. masses --      1.1308                 1.4075                 1.1554
 Frc consts  --      0.9378                 1.1915                 1.0090
 IR Inten    --      0.3746                27.4869                 2.8100

                     49                     50                     51
                      A                      A                      A
 Frequencies --   1232.1160              1303.1224              1308.9702
 Red. masses --      2.0036                 2.6929                 3.9195
 Frc consts  --      1.7921                 2.6942                 3.9568
 IR Inten    --     62.5220               227.1721                15.2331

                     52                     53                     54
                      A                      A                      A
 Frequencies --   1336.6249              1351.4826              1367.0326
 Red. masses --      1.3494                 3.0901                 1.3835
 Frc consts  --      1.4203                 3.3254                 1.5233
 IR Inten    --      7.1072               110.2811                 5.9873

                     55                     56                     57
                      A                      A                      A
 Frequencies --   1386.6356              1412.8082              1452.0761
 Red. masses --      1.2699                 1.4119                 1.2783
 Frc consts  --      1.4386                 1.6604                 1.5880
 IR Inten    --     23.6302                47.8297               342.9451

                     58                     59                     60
                      A                      A                      A
 Frequencies --   1462.6034              1470.6459              1482.5937
 Red. masses --      1.1931                 1.0481                 1.1806
 Frc consts  --      1.5038                 1.3355                 1.5289
 IR Inten    --    195.0893                13.3227               167.1862

                     61                     62                     63
                      A                      A                      A
 Frequencies --   1491.0485              1494.1092              1500.4024
 Red. masses --      1.0565                 2.0149                 1.1155
 Frc consts  --      1.3839                 2.6501                 1.4796
 IR Inten    --     30.2164                68.9589                16.5683

                     64                     65                     66
                      A                      A                      A
 Frequencies --   1503.8252              1519.0195              1548.8525
 Red. masses --      1.0711                 1.6589                 2.3422
 Frc consts  --      1.4272                 2.2552                 3.3106
 IR Inten    --     54.5143               650.0637                25.2518

                     67                     68                     69
                      A                      A                      A
 Frequencies --   1608.2808              1648.0344              1654.2087
 Red. masses --      6.6115                 1.1060                 5.3966
 Frc consts  --     10.0756                 1.7698                 8.7007
 IR Inten    --    501.2786                63.5750                 5.1288

                     70                     71                     72
                      A                      A                      A
 Frequencies --   1676.5179              3052.8308              3058.2578
 Red. masses --      5.8354                 1.0359                 1.0353
 Frc consts  --      9.6635                 5.6882                 5.7051
 IR Inten    --      0.3187                32.2222                57.2255

                     73                     74                     75
                      A                      A                      A
 Frequencies --   3067.7161              3123.2735              3130.8409
 Red. masses --      1.0410                 1.1006                 1.1033
 Frc consts  --      5.7718                 6.3258                 6.3718
 IR Inten    --     25.5547                21.1057                20.3541

                     76                     77                     78
                      A                      A                      A
 Frequencies --   3135.4549              3146.2036              3160.5669
 Red. masses --      1.0987                 1.1033                 1.1041
 Frc consts  --      6.3643                 6.4345                 6.4981
 IR Inten    --     29.2995                34.1586                18.7547

                     79                     80                     81
                      A                      A                      A
 Frequencies --   3191.8757              3193.9656              3200.5214
 Red. masses --      1.1003                 1.0865                 1.0885
 Frc consts  --      6.6046                 6.5305                 6.5694
 IR Inten    --      1.8624                 5.0510                 3.6029

                     82                     83                     84
                      A                      A                      A
 Frequencies --   3209.3584              3213.6316              3220.8704
 Red. masses --      1.0921                 1.0889                 1.0964
 Frc consts  --      6.6276                 6.6259                 6.7015
 IR Inten    --     17.5325                13.2285                27.7567

                     85                     86                     87
                      A                      A                      A
 Frequencies --   3230.8127              3504.6190              3601.6986
 Red. masses --      1.0944                 1.0547                 1.0936
 Frc consts  --      6.7305                 7.6322                 8.3582
 IR Inten    --     10.8708                26.9005                41.6693

 - Thermochemistry -
 -------------------
 Temperature   298.150 Kelvin.  Pressure   1.00000 Atm.
 Atom     1 has atomic number  6 and mass  12.00000

 Molecular mass:   191.13101 amu.
 Principal axes and moments of inertia in atomic units:
                           1         2         3
     Eigenvalues --  1581.788524281.877804760.82637
           X            0.99986   0.01658   0.00271
           Y           -0.01663   0.99966   0.02017
           Z           -0.00238  -0.02021   0.99979
 This molecule is an asymmetric top.
 Rotational symmetry number  1.
 Warning -- assumption of classical behavior for rotation
           may cause significant error
 Rotational temperatures (Kelvin)      0.05476     0.02023     0.01819
 Rotational constants (GHZ):           1.14095     0.42148     0.37908
    1 imaginary frequencies ignored.
 Zero-point vibrational energy     702841.5 (Joules/Mol)
                                  167.98314 (Kcal/Mol)
 Warning -- explicit consideration of  20 degrees of freedom as
           vibrations may cause significant error
 Vibrational temperatures:     49.68    73.72   106.23   113.52   147.35
          (Kelvin)            150.62   181.29   261.26   316.24   352.33
                              398.01   426.24   462.24   478.98   528.05
                              607.35   612.49   702.09   764.41   809.48
                              915.22   929.85   942.45   958.36  1042.77
                             1046.77  1139.15  1151.71  1266.88  1320.53
                             1390.86  1417.93  1443.39  1447.42  1462.65
                             1475.65  1477.40  1488.52  1509.48  1521.66
                             1529.04  1565.86  1604.35  1617.08  1706.96
                             1724.61  1751.64  1772.74  1874.90  1883.32
                             1923.11  1944.48  1966.85  1995.06  2032.72
                             2089.21  2104.36  2115.93  2133.12  2145.29
                             2149.69  2158.74  2163.67  2185.53  2228.45
                             2313.96  2371.15  2380.04  2412.14  4392.34
                             4400.15  4413.76  4493.69  4504.58  4511.22
                             4526.69  4547.35  4592.40  4595.40  4604.84
                             4617.55  4623.70  4634.11  4648.42  5042.37
                             5182.04

 Zero-point correction=                           0.267698 (Hartree/Particle)
 Thermal correction to Energy=                    0.282379
 Thermal correction to Enthalpy=                  0.283323
 Thermal correction to Gibbs Free Energy=         0.225304
 Sum of electronic and zero-point Energies=           -597.213741
 Sum of electronic and thermal Energies=              -597.199060
 Sum of electronic and thermal Enthalpies=            -597.198115
 Sum of electronic and thermal Free Energies=         -597.256135

                     E (Thermal)             CV                S
                      KCal/Mol        Cal/Mol-Kelvin    Cal/Mol-Kelvin
 Total                  177.196             54.641            122.112
 Electronic               0.000              0.000              0.000
 Translational            0.889              2.981             41.649
 Rotational               0.889              2.981             31.845
 Vibrational            175.418             48.679             48.619
 Vibration     1          0.594              1.983              5.550
 Vibration     2          0.596              1.977              4.769
 Vibration     3          0.599              1.966              4.049
 Vibration     4          0.600              1.963              3.918
 Vibration     5          0.604              1.947              3.408
 Vibration     6          0.605              1.945              3.365
 Vibration     7          0.611              1.927              3.006
 Vibration     8          0.630              1.865              2.312
 Vibration     9          0.647              1.811              1.961
 Vibration    10          0.660              1.771              1.767
 Vibration    11          0.678              1.717              1.554
 Vibration    12          0.690              1.681              1.438
 Vibration    13          0.707              1.633              1.304
 Vibration    14          0.715              1.610              1.246
 Vibration    15          0.740              1.540              1.092
 Vibration    16          0.784              1.422              0.885
 Vibration    17          0.788              1.414              0.873
 Vibration    18          0.844              1.277              0.689
 Vibration    19          0.886              1.181              0.584
 Vibration    20          0.918              1.112              0.519

 Optimization completed.
    -- Stationary point found.
 Normal termination of Gaussian 16 at Sun Jan 31 03:48:29 2021.
