 Gaussian 16, Revision A.03,
 Gaussian 16:  ES64L-G16RevA.03 25-Dec-2016

 ----------------------------------------------------------------------
 # wB97XD def2tzvp, opt=(ts, noeigen, calcfc, maxcycles=70, maxstep=5),
  freq=noraman, scrf=(iefpcm, solvent=water)
 ----------------------------------------------------------------------

 ------------------------
 2_iteration/TS-922-2.out
 ------------------------
 Symbolic Z-matrix:
 Charge =  0 Multiplicity = 1

 SCF Done:  E(RwB97XD) =  -3591.36539592     A.U. after   15 cycles
 SCF Done:  E(RwB97XD) =  -3591.36539570     A.U. after    7 cycles
 Optimization completed.
    -- Stationary point found.
 Normal termination of Gaussian 16 at Sun Feb 28 22:12:38 2021.

 ---------------------------------------------------------------------
 #N Geom=AllCheck Guess=TCheck SCRF=Check GenChk RwB97XD/def2TZVP Freq
 ---------------------------------------------------------------------

 Structure from the checkpoint file:  "/beegfs/scratch/user/q/tla25/Gau-69437.chk"
 ------------------------
 2_iteration/TS-922-2.out
 ------------------------
 Charge =  0 Multiplicity = 1

                         Standard orientation:
 ---------------------------------------------------------------------
 Center     Atomic      Atomic             Coordinates (Angstroms)
 Number     Number       Type             X           Y           Z
 ---------------------------------------------------------------------
      1          6           0        0.166288    0.551343   -0.184680
      2          6           0       -0.086121    1.932261   -0.554859
      3          8           0        0.816900    2.628596   -1.017327
      4          6           0       -0.801592   -0.375630    0.167111
      5          6           0       -0.738624    0.551670    2.823540
      6          1           0       -1.232137    0.906402    3.727598
      7          1           0       -0.049526   -0.251691    3.076604
      8          1           0       -0.178171    1.372838    2.377072
      9          7           0       -1.702530    0.066249    1.849016
     10          1           0       -2.179913   -0.773015    2.158862
     11          1           0       -2.403780    0.765676    1.632525
     12         17           0       -0.241484   -1.978950    0.611475
     13         35           0       -2.458744   -0.590718   -0.881372
     14          6           0        1.608600    0.149833   -0.182140
     15          6           0        2.447525    0.452755    0.886196
     16          6           0        3.787988    0.095409    0.863376
     17          6           0        4.313153   -0.569246   -0.235600
     18          6           0        3.489364   -0.869494   -1.311450
     19          6           0        2.150250   -0.509634   -1.282879
     20          1           0        2.048007    0.973683    1.747333
     21          1           0        4.423183    0.336541    1.706798
     22          1           0        5.358777   -0.849928   -0.254402
     23          1           0        3.890488   -1.384296   -2.175797
     24          1           0        1.508988   -0.745411   -2.123918
     25          6           0       -1.412258    2.604697   -0.268880
     26          1           0       -1.430556    2.892129    0.786506
     27          1           0       -1.477779    3.513980   -0.862544
     28          1           0       -2.281247    1.984070   -0.466608
 ---------------------------------------------------------------------

 SCF Done:  E(RwB97XD) =  -3591.36539570     A.U. after    1 cycles

 The electronic state is 1-A.
 Alpha  occ. eigenvalues -- -483.13964-101.71576 -62.68813 -56.47938 -56.47569
 Alpha  occ. eigenvalues --  -56.47559 -19.21574 -14.49731 -10.45072 -10.36668
 Alpha  occ. eigenvalues --  -10.32310 -10.30020 -10.28771 -10.28741 -10.28676
 Alpha  occ. eigenvalues --  -10.28550 -10.28495 -10.28143 -10.27846  -9.60156
 Alpha  occ. eigenvalues --   -8.82918  -7.34833  -7.33926  -7.33877  -6.65094
 Alpha  occ. eigenvalues --   -6.63925  -6.63893  -2.75469  -2.75145  -2.75119
 Alpha  occ. eigenvalues --   -2.74175  -2.74174  -1.12531  -1.05551  -0.99951
 Alpha  occ. eigenvalues --   -0.96222  -0.90233  -0.88150  -0.84773  -0.84317
 Alpha  occ. eigenvalues --   -0.80955  -0.79669  -0.71259  -0.70118  -0.68757
 Alpha  occ. eigenvalues --   -0.64530  -0.62550  -0.59532  -0.58334  -0.57017
 Alpha  occ. eigenvalues --   -0.56172  -0.55290  -0.53805  -0.52972  -0.52242
 Alpha  occ. eigenvalues --   -0.50610  -0.50565  -0.49408  -0.48622  -0.48157
 Alpha  occ. eigenvalues --   -0.47291  -0.45835  -0.43949  -0.42716  -0.42490
 Alpha  occ. eigenvalues --   -0.41568  -0.40757  -0.37888  -0.37514  -0.33466
 Alpha  occ. eigenvalues --   -0.33375  -0.32520  -0.28984
 Alpha virt. eigenvalues --    0.01292   0.02919   0.05590   0.06012   0.08465
 Alpha virt. eigenvalues --    0.10096   0.12750   0.13470   0.14379   0.14861
 Alpha virt. eigenvalues --    0.15920   0.16937   0.17646   0.17938   0.18750

 Mulliken charges:
               1
     1  C   -0.279581
     2  C    0.240288
     3  O   -0.477665
     4  C    0.126431
     5  C   -0.305332
     6  H    0.172891
     7  H    0.167766
     8  H    0.151639
     9  N   -0.336595
    10  H    0.297638
    11  H    0.291769
    12  Cl  -0.040142
    13  Br  -0.076795
    14  C    0.253270
    15  C   -0.212971
    16  C   -0.169470
    17  C   -0.131729
    18  C   -0.151698
    19  C   -0.243114
    20  H    0.144521
    21  H    0.138468
    22  H    0.142384
    23  H    0.139292
    24  H    0.135528
    25  C   -0.412861
    26  H    0.156503
    27  H    0.138491
    28  H    0.141071
 Sum of Mulliken charges =  -0.00000

 Dipole moment (field-independent basis, Debye):
    X=             -5.7044    Y=             -2.3908    Z=              7.6084  Tot=              9.8053
 Quadrupole moment (field-independent basis, Debye-Ang):
   XX=            -98.6865   YY=           -119.8494   ZZ=            -94.5378
   XY=            -10.9410   XZ=             -5.6210   YZ=              9.5836

  Exact polarizability: 284.663   4.847 228.096  -3.558   2.226 238.805
 Approx polarizability: 222.764   3.684 190.373  -1.256   3.029 201.826

 ******    1 imaginary frequencies (negative Signs) ******

                      1                      2                      3
                      A                      A                      A
 Frequencies --   -371.7281                31.4477                51.2240
 Red. masses --      5.7058                 3.8328                 6.7696
 Frc consts  --      0.4645                 0.0022                 0.0105
 IR Inten    --    722.5227                 0.3173                 6.5961

                      4                      5                      6
                      A                      A                      A
 Frequencies --     70.7411                76.0267               102.8321
 Red. masses --      5.9629                 6.5733                 2.8840
 Frc consts  --      0.0176                 0.0224                 0.0180
 IR Inten    --      5.6121                 5.3102                 4.6932

                      7                      8                      9
                      A                      A                      A
 Frequencies --    126.5021               131.6280               152.8533
 Red. masses --      1.9300                 3.1178                 1.2924
 Frc consts  --      0.0182                 0.0318                 0.0178
 IR Inten    --      3.1275                 3.5457                 0.5000

                     10                     11                     12
                      A                      A                      A
 Frequencies --    161.6678               183.0496               203.1984
 Red. masses --      1.5209                 3.9140                 5.0578
 Frc consts  --      0.0234                 0.0773                 0.1230
 IR Inten    --      0.6830                 3.4808                 4.2550

                     13                     14                     15
                      A                      A                      A
 Frequencies --    225.6723               249.9691               259.9261
 Red. masses --      7.2191                 4.5620                 4.3489
 Frc consts  --      0.2166                 0.1679                 0.1731
 IR Inten    --      6.8142                 2.4166                32.0954

                     16                     17                     18
                      A                      A                      A
 Frequencies --    277.0874               336.6267               356.1381
 Red. masses --      5.0771                 4.4977                 4.8747
 Frc consts  --      0.2297                 0.3003                 0.3643
 IR Inten    --      9.5532                18.6211                 9.9463

                     19                     20                     21
                      A                      A                      A
 Frequencies --    422.1981               428.5307               504.9121
 Red. masses --      2.8790                 5.7795                 4.8038
 Frc consts  --      0.3024                 0.6253                 0.7215
 IR Inten    --      0.2099                10.0906                43.1200

                     22                     23                     24
                      A                      A                      A
 Frequencies --    527.5463               580.7616               633.2759
 Red. masses --      3.8616                 3.8004                 5.1218
 Frc consts  --      0.6332                 0.7552                 1.2102
 IR Inten    --     48.9453                70.4639                 7.8027

                     25                     26                     27
                      A                      A                      A
 Frequencies --    636.8632               656.7941               686.0435
 Red. masses --      1.7120                 2.8974                 4.1024
 Frc consts  --      0.4091                 0.7364                 1.1376
 IR Inten    --     15.1337               130.8955                40.8824

                     28                     29                     30
                      A                      A                      A
 Frequencies --    724.6474               752.6291               795.6938
 Red. masses --      1.6040                 4.0230                 2.7810
 Frc consts  --      0.4962                 1.3426                 1.0374
 IR Inten    --     85.5493               178.5929                84.2942

                     31                     32                     33
                      A                      A                      A
 Frequencies --    855.6811               875.5781               924.3511
 Red. masses --      4.2307                 1.2525                 2.7436
 Frc consts  --      1.8251                 0.5657                 1.3812
 IR Inten    --     94.3915                 0.4577                25.8688

                     34                     35                     36
                      A                      A                      A
 Frequencies --    960.8516              1003.6605              1009.7942
 Red. masses --      1.7077                 1.0846                 1.3782
 Frc consts  --      0.9289                 0.6437                 0.8280
 IR Inten    --     36.8775                12.5361                 0.1136

                     37                     38                     39
                      A                      A                      A
 Frequencies --   1020.7486              1026.6979              1026.8568
 Red. masses --      1.2908                 2.8945                 1.6732
 Frc consts  --      0.7924                 1.7977                 1.0395
 IR Inten    --    112.6218                 4.0739                 1.2605

                     40                     41                     42
                      A                      A                      A
 Frequencies --   1038.7768              1044.4042              1064.9299
 Red. masses --      1.7297                 1.8536                 1.9439
 Frc consts  --      1.0997                 1.1912                 1.2989
 IR Inten    --     65.2764                15.8929                19.7037

                     43                     44                     45
                      A                      A                      A
 Frequencies --   1086.1171              1109.1474              1181.6551
 Red. masses --      4.9812                 1.5491                 1.1344
 Frc consts  --      3.4621                 1.1228                 0.9333
 IR Inten    --     40.0709                14.3029                 0.0547

                     46                     47                     48
                      A                      A                      A
 Frequencies --   1206.6732              1213.4245              1215.8705
 Red. masses --      1.1222                 2.1999                 1.8707
 Frc consts  --      0.9627                 1.9084                 1.6294
 IR Inten    --      0.1388                55.3290                 7.6682

                     49                     50                     51
                      A                      A                      A
 Frequencies --   1308.4594              1325.0390              1342.5637
 Red. masses --      4.5120                 3.8638                 1.3589
 Frc consts  --      4.5514                 3.9969                 1.4432
 IR Inten    --      1.9060               888.8744                25.6214

                     52                     53                     54
                      A                      A                      A
 Frequencies --   1356.3620              1392.7899              1417.8636
 Red. masses --      1.4441                 1.4135                 4.9026
 Frc consts  --      1.5653                 1.6156                 5.8070
 IR Inten    --      0.4166               245.6780               565.5268

                     55                     56                     57
                      A                      A                      A
 Frequencies --   1458.5921              1474.8533              1487.0547
 Red. masses --      1.2737                 1.0727                 2.1658
 Frc consts  --      1.5966                 1.3748                 2.8218
 IR Inten    --     47.4369                 8.2242                 5.9154

                     58                     59                     60
                      A                      A                      A
 Frequencies --   1492.2478              1495.2180              1499.1999
 Red. masses --      1.0615                 1.0348                 1.0533
 Frc consts  --      1.3927                 1.3630                 1.3949
 IR Inten    --     43.3990                11.0895                34.1642

                     61                     62                     63
                      A                      A                      A
 Frequencies --   1543.7644              1637.8153              1646.9860
 Red. masses --      2.4265                 1.0893                 5.7867
 Frc consts  --      3.4071                 1.7215                 9.2482
 IR Inten    --     50.9627                64.8218                 4.1672

                     64                     65                     66
                      A                      A                      A
 Frequencies --   1662.1430              1674.1816              3059.9880
 Red. masses --      8.7955                 6.6469                 1.0464
 Frc consts  --     14.3169                10.9767                 5.7729
 IR Inten    --    461.4720               217.9440                 9.5950

                     67                     68                     69
                      A                      A                      A
 Frequencies --   3071.6887              3144.7663              3150.8437
 Red. masses --      1.0328                 1.0907                 1.1046
 Frc consts  --      5.7415                 6.3553                 6.4614
 IR Inten    --     23.4755                21.0595                 8.7948

                     70                     71                     72
                      A                      A                      A
 Frequencies --   3169.7430              3189.1433              3192.3051
 Red. masses --      1.1057                 1.0860                 1.1007
 Frc consts  --      6.5456                 6.5075                 6.6086
 IR Inten    --      9.5543                 4.2818                 5.8057

                     73                     74                     75
                      A                      A                      A
 Frequencies --   3194.6713              3203.7482              3211.1628
 Red. masses --      1.0879                 1.0918                 1.0948
 Frc consts  --      6.5417                 6.6023                 6.6512
 IR Inten    --      0.2808                20.0911                47.2693

                     76                     77                     78
                      A                      A                      A
 Frequencies --   3220.1041              3521.1406              3606.1478
 Red. masses --      1.0987                 1.0506                 1.0968
 Frc consts  --      6.7122                 7.6746                 8.4039
 IR Inten    --     17.2581                69.8704                66.2032

 - Thermochemistry -
 -------------------
 Temperature   298.150 Kelvin.  Pressure   1.00000 Atm.
 Atom     1 has atomic number  6 and mass  12.00000

 Molecular mass:   288.98690 amu.
 Principal axes and moments of inertia in atomic units:
                           1         2         3
     Eigenvalues --  2896.669496109.687726504.98029
           X            0.99879  -0.03536  -0.03429
           Y            0.03817   0.99565   0.08500
           Z            0.03113  -0.08620   0.99579
 This molecule is an asymmetric top.
 Rotational symmetry number  1.
 Warning -- assumption of classical behavior for rotation
           may cause significant error
 Rotational temperatures (Kelvin)      0.02990     0.01418     0.01332
 Rotational constants (GHZ):           0.62304     0.29539     0.27744
    1 imaginary frequencies ignored.
 Zero-point vibrational energy     576374.5 (Joules/Mol)
                                  137.75681 (Kcal/Mol)
 Warning -- explicit consideration of  22 degrees of freedom as
           vibrations may cause significant error
 Vibrational temperatures:     45.25    73.70   101.78   109.39   147.95
          (Kelvin)            182.01   189.38   219.92   232.60   263.37
                              292.36   324.69   359.65   373.98   398.67
                              484.33   512.40   607.45   616.56   726.46
                              759.02   835.59   911.14   916.30   944.98
                              987.06  1042.61  1082.87  1144.83  1231.13
                             1259.76  1329.94  1382.45  1444.04  1452.87
                             1468.63  1477.19  1477.42  1494.57  1502.66
                             1532.20  1562.68  1595.82  1700.14  1736.13
                             1745.85  1749.37  1882.58  1906.44  1931.65
                             1951.50  2003.91  2039.99  2098.59  2121.98
                             2139.54  2147.01  2151.29  2157.01  2221.13
                             2356.45  2369.65  2391.45  2408.77  4402.64
                             4419.47  4524.62  4533.36  4560.55  4588.47
                             4593.02  4596.42  4609.48  4620.15  4633.01
                             5066.14  5188.44

 Zero-point correction=                           0.219529 (Hartree/Particle)
 Thermal correction to Energy=                    0.235469
 Thermal correction to Enthalpy=                  0.236414
 Thermal correction to Gibbs Free Energy=         0.174568
 Sum of electronic and zero-point Energies=          -3591.145866
 Sum of electronic and thermal Energies=             -3591.129926
 Sum of electronic and thermal Enthalpies=           -3591.128982
 Sum of electronic and thermal Free Energies=        -3591.190827

                     E (Thermal)             CV                S
                      KCal/Mol        Cal/Mol-Kelvin    Cal/Mol-Kelvin
 Total                  147.759             57.104            130.164
 Electronic               0.000              0.000              0.000
 Translational            0.889              2.981             42.881
 Rotational               0.889              2.981             33.109
 Vibrational            145.982             51.143             54.174
 Vibration     1          0.594              1.983              5.736
 Vibration     2          0.595              1.977              4.770
 Vibration     3          0.598              1.968              4.133
 Vibration     4          0.599              1.965              3.991
 Vibration     5          0.605              1.947              3.400
 Vibration     6          0.611              1.927              2.999
 Vibration     7          0.612              1.922              2.922
 Vibration     8          0.619              1.900              2.636
 Vibration     9          0.622              1.889              2.530
 Vibration    10          0.631              1.863              2.297
 Vibration    11          0.639              1.835              2.104
 Vibration    12          0.650              1.802              1.913
 Vibration    13          0.663              1.763              1.731
 Vibration    14          0.668              1.746              1.662
 Vibration    15          0.678              1.716              1.552
 Vibration    16          0.717              1.602              1.228
 Vibration    17          0.732              1.563              1.139
 Vibration    18          0.785              1.422              0.885
 Vibration    19          0.790              1.408              0.863
 Vibration    20          0.860              1.239              0.646
 Vibration    21          0.883              1.189              0.593
 Vibration    22          0.937              1.073              0.484

 Optimization completed.
    -- Stationary point found.
 Normal termination of Gaussian 16 at Sun Feb 28 23:14:31 2021.
