 Gaussian 16, Revision A.03,
 Gaussian 16:  ES64L-G16RevA.03 25-Dec-2016

 ----------------------------------------------------------------------
 # wB97XD def2tzvp, opt=(ts, noeigen, calcfc, maxcycles=70, maxstep=8),
  freq=noraman, scrf=(iefpcm, solvent=water)
 ----------------------------------------------------------------------

 ------------------------
 1_iteration/TS-934-1.out
 ------------------------
 Symbolic Z-matrix:
 Charge =  0 Multiplicity = 1

 SCF Done:  E(RwB97XD) =  -3455.00112405     A.U. after   15 cycles
 SCF Done:  E(RwB97XD) =  -3455.00168197     A.U. after   12 cycles
 SCF Done:  E(RwB97XD) =  -3455.00197174     A.U. after   12 cycles
 SCF Done:  E(RwB97XD) =  -3455.00223983     A.U. after   11 cycles
 SCF Done:  E(RwB97XD) =  -3455.00243058     A.U. after   11 cycles
 SCF Done:  E(RwB97XD) =  -3455.00247142     A.U. after   11 cycles
 SCF Done:  E(RwB97XD) =  -3455.00247289     A.U. after   10 cycles
 SCF Done:  E(RwB97XD) =  -3455.00247696     A.U. after   10 cycles
 SCF Done:  E(RwB97XD) =  -3455.00247653     A.U. after    8 cycles
 SCF Done:  E(RwB97XD) =  -3455.00247665     A.U. after    6 cycles
 Optimization completed.
    -- Stationary point found.
 Normal termination of Gaussian 16 at Sun Feb 28 15:29:23 2021.

 ---------------------------------------------------------------------
 #N Geom=AllCheck Guess=TCheck SCRF=Check GenChk RwB97XD/def2TZVP Freq
 ---------------------------------------------------------------------

 Structure from the checkpoint file:  "/beegfs/scratch/user/q/tla25/Gau-37985.chk"
 ------------------------
 1_iteration/TS-934-1.out
 ------------------------
 Charge =  0 Multiplicity = 1

                         Standard orientation:
 ---------------------------------------------------------------------
 Center     Atomic      Atomic             Coordinates (Angstroms)
 Number     Number       Type             X           Y           Z
 ---------------------------------------------------------------------
      1          6           0        0.519519    0.479248    0.633508
      2          6           0        1.554303   -0.077524   -0.221526
      3          8           0        1.297177   -0.501889   -1.362629
      4          6           0       -0.807765    0.292433    0.359036
      5          6           0       -0.815956    2.443374   -1.489325
      6          1           0        0.086708    2.574071   -0.885536
      7          1           0       -0.600785    2.761294   -2.509968
      8          1           0       -1.611758    3.061238   -1.079233
      9          7           0       -1.196224    1.045233   -1.426848
     10          1           0       -0.537206    0.451021   -1.925657
     11          1           0       -2.143853    0.865786   -1.733540
     12         17           0       -1.940358    1.172770    1.357824
     13         35           0       -1.504345   -1.488049   -0.058691
     14          1           0        0.766443    1.227509    1.370148
     15          7           0        2.828605   -0.075811    0.252504
     16          6           0        3.172428    0.319058    1.602020
     17          6           0        3.938987   -0.368657   -0.627100
     18          1           0        2.390642    0.029552    2.301026
     19          1           0        4.089416   -0.193681    1.892532
     20          1           0        3.343429    1.397402    1.685236
     21          1           0        3.568262   -0.517549   -1.636297
     22          1           0        4.650634    0.461392   -0.622600
     23          1           0        4.463038   -1.271841   -0.303160
 ---------------------------------------------------------------------

 SCF Done:  E(RwB97XD) =  -3455.00247665     A.U. after    1 cycles

 The electronic state is 1-A.
 Alpha  occ. eigenvalues -- -483.13250-101.71165 -62.68100 -56.47225 -56.46856
 Alpha  occ. eigenvalues --  -56.46847 -19.20346 -14.47474 -14.45755 -10.43610
 Alpha  occ. eigenvalues --  -10.38021 -10.31289 -10.30929 -10.30359 -10.26526
 Alpha  occ. eigenvalues --   -9.59736  -8.82211  -7.34405  -7.33501  -7.33475
 Alpha  occ. eigenvalues --   -6.64386  -6.63218  -6.63188  -2.74765  -2.74436
 Alpha  occ. eigenvalues --   -2.74413  -2.73468  -2.73467  -1.13058  -1.03787
 Alpha  occ. eigenvalues --   -1.03081  -0.98909  -0.89255  -0.85395  -0.81474
 Alpha  occ. eigenvalues --   -0.78876  -0.78272  -0.68252  -0.63265  -0.61684
 Alpha  occ. eigenvalues --   -0.59801  -0.57252  -0.56757  -0.56179  -0.54225
 Alpha  occ. eigenvalues --   -0.53300  -0.50600  -0.48660  -0.48400  -0.48080
 Alpha  occ. eigenvalues --   -0.47618  -0.46484  -0.46384  -0.45177  -0.41542
 Alpha  occ. eigenvalues --   -0.40014  -0.37270  -0.36803  -0.34166  -0.32091
 Alpha  occ. eigenvalues --   -0.28538
 Alpha virt. eigenvalues --    0.02886   0.04986   0.09483   0.11079   0.12508
 Alpha virt. eigenvalues --    0.14505   0.15527   0.16571   0.17160   0.17498
 Alpha virt. eigenvalues --    0.17933   0.19740   0.19985   0.20489   0.20969

 Mulliken charges:
               1
     1  C   -0.618714
     2  C    0.381451
     3  O   -0.578389
     4  C    0.263859
     5  C   -0.283773
     6  H    0.143536
     7  H    0.152862
     8  H    0.152274
     9  N   -0.351236
    10  H    0.277953
    11  H    0.283340
    12  Cl  -0.067683
    13  Br  -0.098422
    14  H    0.180728
    15  N   -0.098715
    16  C   -0.311792
    17  C   -0.284001
    18  H    0.154706
    19  H    0.145653
    20  H    0.142370
    21  H    0.144925
    22  H    0.133742
    23  H    0.135324
 Sum of Mulliken charges =  -0.00000

 Dipole moment (field-independent basis, Debye):
    X=              0.8115    Y=              4.4205    Z=             -0.4854  Tot=              4.5205
 Quadrupole moment (field-independent basis, Debye-Ang):
   XX=            -73.1472   YY=            -83.1533   ZZ=            -83.9279
   XY=             -1.6769   XZ=             11.1894   YZ=             -5.0429

  Exact polarizability: 216.280  -4.512 169.954  11.049   2.196 165.129
 Approx polarizability: 161.669  -2.291 140.908   7.953   5.617 142.561

 ******    1 imaginary frequencies (negative Signs) ******

                      1                      2                      3
                      A                      A                      A
 Frequencies --   -410.7188                43.2329                71.1574
 Red. masses --      4.9794                 3.1235                 2.9211
 Frc consts  --      0.4949                 0.0034                 0.0087
 IR Inten    --    666.1259                 5.3043                 3.8800

                      4                      5                      6
                      A                      A                      A
 Frequencies --     91.2739               102.6900               110.5241
 Red. masses --      3.0248                 1.8592                 2.0190
 Frc consts  --      0.0148                 0.0116                 0.0145
 IR Inten    --      0.3648                 5.8502                 9.8260

                      7                      8                      9
                      A                      A                      A
 Frequencies --    129.9628               138.6214               152.7264
 Red. masses --      1.5111                 2.8807                 3.2092
 Frc consts  --      0.0150                 0.0326                 0.0441
 IR Inten    --     22.6299                12.2900                 5.2072

                     10                     11                     12
                      A                      A                      A
 Frequencies --    179.7200               209.7104               221.6533
 Red. masses --      1.4111                 8.4979                 2.3772
 Frc consts  --      0.0269                 0.2202                 0.0688
 IR Inten    --      2.8350                 4.7886                 5.7866

                     13                     14                     15
                      A                      A                      A
 Frequencies --    226.5543               266.1676               312.0043
 Red. masses --      2.7342                 4.4756                 4.8853
 Frc consts  --      0.0827                 0.1868                 0.2802
 IR Inten    --      6.4006                25.8391                 1.4738

                     16                     17                     18
                      A                      A                      A
 Frequencies --    338.5784               374.6568               413.4719
 Red. masses --      6.9652                 4.8459                 3.2227
 Frc consts  --      0.4704                 0.4008                 0.3246
 IR Inten    --      3.6447                55.5455                 8.5469

                     19                     20                     21
                      A                      A                      A
 Frequencies --    480.0894               581.1991               633.1456
 Red. masses --      3.3408                 2.1219                 5.2053
 Frc consts  --      0.4537                 0.4223                 1.2294
 IR Inten    --     37.6740                55.5006                28.3397

                     22                     23                     24
                      A                      A                      A
 Frequencies --    667.7931               695.4559               785.6677
 Red. masses --      1.2581                 2.5606                 5.7823
 Frc consts  --      0.3306                 0.7297                 2.1029
 IR Inten    --    100.3932               138.1244                66.4860

                     25                     26                     27
                      A                      A                      A
 Frequencies --    800.4145               924.6764               975.5330
 Red. masses --      6.4900                 4.6484                 1.0969
 Frc consts  --      2.4498                 2.3417                 0.6150
 IR Inten    --    141.5204                78.3846               120.1124

                     28                     29                     30
                      A                      A                      A
 Frequencies --   1023.4658              1055.0113              1086.0825
 Red. masses --      2.3424                 1.1708                 1.3956
 Frc consts  --      1.4456                 0.7678                 0.9699
 IR Inten    --     67.8807               108.1468                17.0669

                     31                     32                     33
                      A                      A                      A
 Frequencies --   1093.6718              1131.6584              1167.2453
 Red. masses --      4.4703                 1.2331                 1.5159
 Frc consts  --      3.1504                 0.9304                 1.2169
 IR Inten    --     39.8775                 5.0591               168.3692

                     34                     35                     36
                      A                      A                      A
 Frequencies --   1185.5188              1188.6979              1282.9778
 Red. masses --      1.6961                 1.4267                 1.7692
 Frc consts  --      1.4045                 1.1877                 1.7158
 IR Inten    --    284.6677                24.5078               222.3081

                     37                     38                     39
                      A                      A                      A
 Frequencies --   1317.7785              1347.4079              1430.2972
 Red. masses --      5.0009                 1.3075                 1.3606
 Frc consts  --      5.1166                 1.3985                 1.6399
 IR Inten    --     13.0367                 7.1065               113.7262

                     40                     41                     42
                      A                      A                      A
 Frequencies --   1439.5408              1449.1918              1473.7600
 Red. masses --      1.6121                 1.2611                 1.3903
 Frc consts  --      1.9683                 1.5605                 1.7791
 IR Inten    --      4.0021               174.5468               117.1117

                     43                     44                     45
                      A                      A                      A
 Frequencies --   1481.5499              1487.8710              1491.7545
 Red. masses --      1.6350                 1.0459                 1.0499
 Frc consts  --      2.1145                 1.3642                 1.3766
 IR Inten    --    644.6987                17.1693                22.9981

                     46                     47                     48
                      A                      A                      A
 Frequencies --   1497.8113              1501.6498              1506.2064
 Red. masses --      1.1831                 1.0392                 1.2002
 Frc consts  --      1.5638                 1.3807                 1.6043
 IR Inten    --    164.5215                 2.9474                73.4925

                     49                     50                     51
                      A                      A                      A
 Frequencies --   1539.5056              1620.1932              1649.0908
 Red. masses --      1.5843                 1.7408                 2.0779
 Frc consts  --      2.2123                 2.6923                 3.3294
 IR Inten    --    255.0659               554.9235               223.1797

                     52                     53                     54
                      A                      A                      A
 Frequencies --   3031.0055              3037.4283              3046.6005
 Red. masses --      1.0442                 1.0400                 1.0378
 Frc consts  --      5.6523                 5.6532                 5.6751
 IR Inten    --     68.0253               127.5344                49.3535

                     55                     56                     57
                      A                      A                      A
 Frequencies --   3089.6167              3112.2425              3118.7905
 Red. masses --      1.1040                 1.0926                 1.0996
 Frc consts  --      6.2092                 6.2352                 6.3018
 IR Inten    --     59.4938                30.7579                14.8746

                     58                     59                     60
                      A                      A                      A
 Frequencies --   3156.9291              3162.8635              3184.9537
 Red. masses --      1.1023                 1.1040                 1.0972
 Frc consts  --      6.4728                 6.5073                 6.5578
 IR Inten    --     15.2752                16.0674                 4.6271

                     61                     62                     63
                      A                      A                      A
 Frequencies --   3243.0910              3464.1528              3602.9379
 Red. masses --      1.0892                 1.0577                 1.0916
 Frc consts  --      6.7499                 7.4787                 8.3487
 IR Inten    --      2.0796                71.5161               111.7270

 - Thermochemistry -
 -------------------
 Temperature   298.150 Kelvin.  Pressure   1.00000 Atm.
 Atom     1 has atomic number  6 and mass  12.00000

 Molecular mass:   241.98215 amu.
 Principal axes and moments of inertia in atomic units:
                           1         2         3
     Eigenvalues --  2043.400894074.503314526.21308
           X            0.99883  -0.03751   0.03052
           Y            0.04057   0.99344  -0.10691
           Z           -0.02631   0.10802   0.99380
 This molecule is an asymmetric top.
 Rotational symmetry number  1.
 Warning -- assumption of classical behavior for rotation
           may cause significant error
 Rotational temperatures (Kelvin)      0.04239     0.02126     0.01914
 Rotational constants (GHZ):           0.88320     0.44294     0.39873
    1 imaginary frequencies ignored.
 Zero-point vibrational energy     482246.0 (Joules/Mol)
                                  115.25955 (Kcal/Mol)
 Warning -- explicit consideration of  19 degrees of freedom as
           vibrations may cause significant error
 Vibrational temperatures:     62.20   102.38   131.32   147.75   159.02
          (Kelvin)            186.99   199.45   219.74   258.58   301.73
                              318.91   325.96   382.96   448.90   487.14
                              539.05   594.89   690.74   836.22   910.96
                              960.81  1000.61  1130.40  1151.62  1330.40
                             1403.57  1472.54  1517.93  1562.63  1573.55
                             1628.20  1679.41  1705.70  1710.27  1845.92
                             1895.99  1938.62  2057.88  2071.18  2085.06
                             2120.41  2131.62  2140.71  2146.30  2155.02
                             2160.54  2167.10  2215.01  2331.10  2372.67
                             4360.94  4370.18  4383.38  4445.27  4477.82
                             4487.24  4542.12  4550.66  4582.44  4666.08
                             4984.14  5183.82

 Zero-point correction=                           0.183678 (Hartree/Particle)
 Thermal correction to Energy=                    0.197720
 Thermal correction to Enthalpy=                  0.198665
 Thermal correction to Gibbs Free Energy=         0.141511
 Sum of electronic and zero-point Energies=          -3454.818799
 Sum of electronic and thermal Energies=             -3454.804756
 Sum of electronic and thermal Enthalpies=           -3454.803812
 Sum of electronic and thermal Free Energies=        -3454.860966

                     E (Thermal)             CV                S
                      KCal/Mol        Cal/Mol-Kelvin    Cal/Mol-Kelvin
 Total                  124.071             47.555            120.290
 Electronic               0.000              0.000              0.000
 Translational            0.889              2.981             42.352
 Rotational               0.889              2.981             32.000
 Vibrational            122.294             41.594             45.938
 Vibration     1          0.595              1.980              5.105
 Vibration     2          0.598              1.968              4.121
 Vibration     3          0.602              1.955              3.633
 Vibration     4          0.605              1.947              3.403
 Vibration     5          0.606              1.941              3.260
 Vibration     6          0.612              1.923              2.947
 Vibration     7          0.614              1.915              2.823
 Vibration     8          0.619              1.900              2.638
 Vibration     9          0.629              1.867              2.331
 Vibration    10          0.642              1.826              2.046
 Vibration    11          0.648              1.808              1.946
 Vibration    12          0.650              1.801              1.906
 Vibration    13          0.672              1.735              1.621
 Vibration    14          0.700              1.651              1.352
 Vibration    15          0.719              1.598              1.219
 Vibration    16          0.746              1.524              1.061
 Vibration    17          0.777              1.441              0.914
 Vibration    18          0.836              1.294              0.710
 Vibration    19          0.938              1.072              0.483

 Optimization completed.
    -- Stationary point found.
 Normal termination of Gaussian 16 at Sun Feb 28 15:54:07 2021.
