 Gaussian 16, Revision A.03,
 Gaussian 16:  ES64L-G16RevA.03 25-Dec-2016

 ----------------------------------------------------------------------
 # wB97XD def2tzvp, opt=(ts, noeigen, calcfc, maxcycles=70, maxstep=8),
  freq=noraman, scrf=(iefpcm, solvent=water)
 ----------------------------------------------------------------------

 ------------------------
 1_iteration/TS-923-1.out
 ------------------------
 Symbolic Z-matrix:
 Charge =  0 Multiplicity = 1

 SCF Done:  E(RwB97XD) =  -3607.43079330     A.U. after   15 cycles
 SCF Done:  E(RwB97XD) =  -3607.43281053     A.U. after   14 cycles
 SCF Done:  E(RwB97XD) =  -3607.43334786     A.U. after   12 cycles
 SCF Done:  E(RwB97XD) =  -3607.43341856     A.U. after   13 cycles
 SCF Done:  E(RwB97XD) =  -3607.43333856     A.U. after   12 cycles
 SCF Done:  E(RwB97XD) =  -3607.43364521     A.U. after   12 cycles
 SCF Done:  E(RwB97XD) =  -3607.43362565     A.U. after   11 cycles
 SCF Done:  E(RwB97XD) =  -3607.43365324     A.U. after   11 cycles
 SCF Done:  E(RwB97XD) =  -3607.43365133     A.U. after   10 cycles
 SCF Done:  E(RwB97XD) =  -3607.43365224     A.U. after    9 cycles
 SCF Done:  E(RwB97XD) =  -3607.43365185     A.U. after    8 cycles
 SCF Done:  E(RwB97XD) =  -3607.43365217     A.U. after    7 cycles
 Optimization completed.
    -- Stationary point found.
 Normal termination of Gaussian 16 at Sun Feb 28 16:45:52 2021.

 ---------------------------------------------------------------------
 #N Geom=AllCheck Guess=TCheck SCRF=Check GenChk RwB97XD/def2TZVP Freq
 ---------------------------------------------------------------------

 Structure from the checkpoint file:  "/beegfs/scratch/user/q/tla25/Gau-66764.chk"
 ------------------------
 1_iteration/TS-923-1.out
 ------------------------
 Charge =  0 Multiplicity = 1

                         Standard orientation:
 ---------------------------------------------------------------------
 Center     Atomic      Atomic             Coordinates (Angstroms)
 Number     Number       Type             X           Y           Z
 ---------------------------------------------------------------------
      1          6           0        0.174504    0.530051   -0.224100
      2          6           0       -0.081458    1.921460   -0.588846
      3          8           0        0.840987    2.692246   -0.860569
      4          6           0       -0.791533   -0.358818    0.192688
      5          6           0       -0.693677    0.743190    2.769304
      6          1           0       -1.174800    1.132255    3.666039
      7          1           0       -0.011162   -0.059414    3.042676
      8          1           0       -0.133667    1.544584    2.289502
      9          7           0       -1.675407    0.237556    1.822676
     10          1           0       -2.201746   -0.549399    2.185486
     11          1           0       -2.327843    0.963169    1.547983
     12         17           0       -0.262200   -1.938298    0.728821
     13         35           0       -2.494294   -0.616169   -0.821865
     14          6           0        1.615050    0.128313   -0.213998
     15          6           0        2.144690   -0.571953   -1.294996
     16          6           0        3.480167   -0.947806   -1.318065
     17          6           0        4.311901   -0.621782   -0.256643
     18          6           0        3.798791    0.083640    0.823091
     19          6           0        2.462625    0.454914    0.841006
     20          1           0        1.496639   -0.828160   -2.124764
     21          1           0        3.871116   -1.495227   -2.166865
     22          1           0        5.354424   -0.914098   -0.270805
     23          1           0        4.440735    0.344918    1.655346
     24          1           0        2.072546    1.006605    1.686842
     25          7           0       -1.364557    2.410327   -0.535528
     26          1           0       -2.139218    1.794608   -0.720374
     27          1           0       -1.463848    3.336746   -0.917886
 ---------------------------------------------------------------------

 SCF Done:  E(RwB97XD) =  -3607.43365217     A.U. after    1 cycles

 The electronic state is 1-A.
 Alpha  occ. eigenvalues -- -483.13967-101.71667 -62.68816 -56.47930 -56.47579
 Alpha  occ. eigenvalues --  -56.47567 -19.20658 -14.49698 -14.44194 -10.44906
 Alpha  occ. eigenvalues --  -10.38757 -10.32200 -10.30043 -10.28764 -10.28730
 Alpha  occ. eigenvalues --  -10.28678 -10.28528 -10.28500 -10.28154  -9.60241
 Alpha  occ. eigenvalues --   -8.82917  -7.34919  -7.34009  -7.33964  -6.65054
 Alpha  occ. eigenvalues --   -6.63946  -6.63911  -2.75433  -2.75131  -2.75102
 Alpha  occ. eigenvalues --   -2.74207  -2.74205  -1.13373  -1.05541  -1.00247
 Alpha  occ. eigenvalues --   -0.99411  -0.96223  -0.89699  -0.88112  -0.84761
 Alpha  occ. eigenvalues --   -0.82297  -0.79564  -0.71778  -0.70292  -0.70009
 Alpha  occ. eigenvalues --   -0.65177  -0.64211  -0.62376  -0.59592  -0.58434
 Alpha  occ. eigenvalues --   -0.57835  -0.55698  -0.54835  -0.53814  -0.52693
 Alpha  occ. eigenvalues --   -0.51095  -0.50536  -0.49807  -0.48636  -0.48516
 Alpha  occ. eigenvalues --   -0.47442  -0.45964  -0.42938  -0.42547  -0.41728
 Alpha  occ. eigenvalues --   -0.40831  -0.38189  -0.38006  -0.36084  -0.34511
 Alpha  occ. eigenvalues --   -0.33365  -0.32702  -0.28782
 Alpha virt. eigenvalues --    0.01157   0.04110   0.05726   0.05927   0.08592
 Alpha virt. eigenvalues --    0.10343   0.12965   0.13875   0.14436   0.15925
 Alpha virt. eigenvalues --    0.16285   0.16780   0.17641   0.18077   0.18783

 Mulliken charges:
               1
     1  C   -0.246792
     2  C    0.291100
     3  O   -0.504746
     4  C    0.076834
     5  C   -0.308081
     6  H    0.171716
     7  H    0.165644
     8  H    0.158303
     9  N   -0.314743
    10  H    0.297542
    11  H    0.284990
    12  Cl  -0.036776
    13  Br  -0.110693
    14  C    0.248775
    15  C   -0.237793
    16  C   -0.151915
    17  C   -0.135761
    18  C   -0.162879
    19  C   -0.230807
    20  H    0.135686
    21  H    0.139260
    22  H    0.142350
    23  H    0.138553
    24  H    0.143723
    25  N   -0.476039
    26  H    0.257792
    27  H    0.264757
 Sum of Mulliken charges =  -0.00000

 Dipole moment (field-independent basis, Debye):
    X=             -6.3620    Y=             -1.8884    Z=              6.0822  Tot=              9.0019
 Quadrupole moment (field-independent basis, Debye-Ang):
   XX=            -96.6292   YY=           -117.6353   ZZ=            -93.6927
   XY=            -14.1483   XZ=             -3.3651   YZ=              6.4195

  Exact polarizability: 284.323   3.356 218.439   1.330   7.482 229.695
 Approx polarizability: 222.636   1.939 185.002   2.084   6.776 193.386

 ******    1 imaginary frequencies (negative Signs) ******

                      1                      2                      3
                      A                      A                      A
 Frequencies --   -389.7423                32.9245                55.6328
 Red. masses --      5.5355                 3.8528                 7.4905
 Frc consts  --      0.4954                 0.0025                 0.0137
 IR Inten    --    522.5458                 0.5488                 9.3580

                      4                      5                      6
                      A                      A                      A
 Frequencies --     73.3015                80.8397                91.8935
 Red. masses --      5.7510                 4.8332                 3.9013
 Frc consts  --      0.0182                 0.0186                 0.0194
 IR Inten    --      3.1330                 3.9519                 9.4510

                      7                      8                      9
                      A                      A                      A
 Frequencies --    131.3978               147.2937               167.4164
 Red. masses --      3.7454                 3.6939                 1.9591
 Frc consts  --      0.0381                 0.0472                 0.0324
 IR Inten    --      6.6434                 2.5867                 4.2087

                     10                     11                     12
                      A                      A                      A
 Frequencies --    184.2124               203.7176               222.4392
 Red. masses --      2.8574                 3.9077                 6.8858
 Frc consts  --      0.0571                 0.0955                 0.2007
 IR Inten    --      3.0618                 5.9848                 6.6594

                     13                     14                     15
                      A                      A                      A
 Frequencies --    247.9978               261.3119               276.4275
 Red. masses --      4.6955                 4.4864                 4.7317
 Frc consts  --      0.1701                 0.1805                 0.2130
 IR Inten    --      2.3837                27.9056                12.0788

                     16                     17                     18
                      A                      A                      A
 Frequencies --    346.9819               368.5468               403.3961
 Red. masses --      5.6977                 5.0156                 4.8528
 Frc consts  --      0.4042                 0.4014                 0.4653
 IR Inten    --     16.2505                 6.0909                12.4988

                     19                     20                     21
                      A                      A                      A
 Frequencies --    422.9434               485.3753               520.2962
 Red. masses --      2.8561                 1.3290                 3.2107
 Frc consts  --      0.3010                 0.1845                 0.5121
 IR Inten    --      0.0716                30.9633                30.7029

                     22                     23                     24
                      A                      A                      A
 Frequencies --    530.0951               575.2728               615.6010
 Red. masses --      1.4481                 3.3893                 3.7133
 Frc consts  --      0.2397                 0.6609                 0.8291
 IR Inten    --    405.9666                56.1803                74.0208

                     25                     26                     27
                      A                      A                      A
 Frequencies --    639.6047               642.7574               667.8351
 Red. masses --      5.4849                 2.1585                 2.1979
 Frc consts  --      1.3220                 0.5254                 0.5775
 IR Inten    --     33.8131                52.7902               131.5838

                     28                     29                     30
                      A                      A                      A
 Frequencies --    724.8622               747.9239               797.8636
 Red. masses --      1.5776                 4.5982                 2.8826
 Frc consts  --      0.4884                 1.5155                 1.0812
 IR Inten    --     91.9069               168.8499                41.1616

                     31                     32                     33
                      A                      A                      A
 Frequencies --    806.2500               865.4885               875.6494
 Red. masses --      6.2720                 4.2609                 1.2507
 Frc consts  --      2.4021                 1.8805                 0.5650
 IR Inten    --     95.1710                59.3750                 0.4693

                     34                     35                     36
                      A                      A                      A
 Frequencies --    953.8738              1005.1126              1010.0374
 Red. masses --      1.5017                 1.1299                 1.3766
 Frc consts  --      0.8050                 0.6725                 0.8275
 IR Inten    --      2.9174                32.7120                 0.5331

                     37                     38                     39
                      A                      A                      A
 Frequencies --   1014.9332              1026.6232              1027.4107
 Red. masses --      4.1957                 1.4021                 4.7453
 Frc consts  --      2.5464                 0.8706                 2.9512
 IR Inten    --      5.9036                 0.6638                 1.5103

                     40                     41                     42
                      A                      A                      A
 Frequencies --   1040.6119              1065.2540              1086.5131
 Red. masses --      1.1704                 2.0109                 5.0423
 Frc consts  --      0.7468                 1.3444                 3.5071
 IR Inten    --     94.9656                13.9099                46.6364

                     43                     44                     45
                      A                      A                      A
 Frequencies --   1109.5126              1109.6579              1181.6698
 Red. masses --      1.7071                 1.5940                 1.1336
 Frc consts  --      1.2381                 1.1565                 0.9326
 IR Inten    --     76.1074                32.4277                 0.0908

                     46                     47                     48
                      A                      A                      A
 Frequencies --   1207.2963              1219.6696              1260.9534
 Red. masses --      1.1207                 1.4034                 3.9696
 Frc consts  --      0.9625                 1.2300                 3.7187
 IR Inten    --      0.5138                27.8181                77.6508

                     49                     50                     51
                      A                      A                      A
 Frequencies --   1308.6566              1345.6705              1356.7220
 Red. masses --      4.5134                 1.3530                 1.4363
 Frc consts  --      4.5541                 1.4436                 1.5577
 IR Inten    --      1.1293                16.6775                 1.4934

                     52                     53                     54
                      A                      A                      A
 Frequencies --   1371.7083              1445.1856              1466.9327
 Red. masses --      4.5310                 1.9534                 2.0502
 Frc consts  --      5.0231                 2.4038                 2.5994
 IR Inten    --    859.3465               281.9623               252.6157

                     55                     56                     57
                      A                      A                      A
 Frequencies --   1487.1150              1496.0694              1499.5570
 Red. masses --      2.1784                 1.0411                 1.0543
 Frc consts  --      2.8384                 1.3729                 1.3968
 IR Inten    --      8.0343                29.6494                45.0287

                     58                     59                     60
                      A                      A                      A
 Frequencies --   1545.4318              1610.9593              1631.3623
 Red. masses --      2.4749                 1.3476                 1.0922
 Frc consts  --      3.4827                 2.0605                 1.7126
 IR Inten    --     63.9897               332.7778                94.2127

                     61                     62                     63
                      A                      A                      A
 Frequencies --   1646.9898              1667.5438              1675.1875
 Red. masses --      5.7737                 5.0775                 5.7838
 Frc consts  --      9.2275                 8.3187                 9.5629
 IR Inten    --      1.3328               346.0665               458.1567

                     64                     65                     66
                      A                      A                      A
 Frequencies --   3074.7619              3156.0062              3170.4895
 Red. masses --      1.0325                 1.1047                 1.1060
 Frc consts  --      5.7512                 6.4831                 6.5501
 IR Inten    --     24.2866                 9.6456                 8.9421

                     67                     68                     69
                      A                      A                      A
 Frequencies --   3189.3638              3195.4902              3204.5283
 Red. masses --      1.0859                 1.0880                 1.0921
 Frc consts  --      6.5082                 6.5460                 6.6076
 IR Inten    --      3.8031                 0.4969                23.8181

                     70                     71                     72
                      A                      A                      A
 Frequencies --   3212.5575              3220.7998              3521.9978
 Red. masses --      1.0946                 1.0983                 1.0502
 Frc consts  --      6.6558                 6.7128                 7.6757
 IR Inten    --     45.5855                15.9336                64.7126

                     73                     74                     75
                      A                      A                      A
 Frequencies --   3583.7754              3608.7491              3694.8814
 Red. masses --      1.0477                 1.0971                 1.1007
 Frc consts  --      7.9283                 8.4181                 8.8534
 IR Inten    --     50.7663                64.9400               131.0624

 - Thermochemistry -
 -------------------
 Temperature   298.150 Kelvin.  Pressure   1.00000 Atm.
 Atom     1 has atomic number  6 and mass  12.00000

 Molecular mass:   289.98215 amu.
 Principal axes and moments of inertia in atomic units:
                           1         2         3
     Eigenvalues --  2858.280426114.314826546.28295
           X            0.99901  -0.03279  -0.03011
           Y            0.03504   0.99636   0.07766
           Z            0.02745  -0.07864   0.99652
 This molecule is an asymmetric top.
 Rotational symmetry number  1.
 Warning -- assumption of classical behavior for rotation
           may cause significant error
 Rotational temperatures (Kelvin)      0.03030     0.01417     0.01323
 Rotational constants (GHZ):           0.63141     0.29517     0.27569
    1 imaginary frequencies ignored.
 Zero-point vibrational energy     549810.7 (Joules/Mol)
                                  131.40791 (Kcal/Mol)
 Warning -- explicit consideration of  23 degrees of freedom as
           vibrations may cause significant error
 Vibrational temperatures:     47.37    80.04   105.46   116.31   132.21
          (Kelvin)            189.05   211.92   240.87   265.04   293.10
                              320.04   356.81   375.97   397.72   499.23
                              530.26   580.40   608.52   698.35   748.59
                              762.69   827.69   885.71   920.25   924.78
                              960.87  1042.92  1076.10  1147.95  1160.01
                             1245.24  1259.86  1372.41  1446.13  1453.22
                             1460.26  1477.08  1478.21  1497.21  1532.66
                             1563.25  1596.34  1596.55  1700.16  1737.03
                             1754.83  1814.23  1882.86  1936.12  1952.02
                             1973.58  2079.30  2110.59  2139.63  2152.51
                             2157.53  2223.53  2317.81  2347.17  2369.65
                             2399.22  2410.22  4423.90  4540.79  4561.63
                             4588.78  4597.60  4610.60  4622.15  4634.01
                             5067.37  5156.25  5192.19  5316.11

 Zero-point correction=                           0.209412 (Hartree/Particle)
 Thermal correction to Energy=                    0.224910
 Thermal correction to Enthalpy=                  0.225854
 Thermal correction to Gibbs Free Energy=         0.165184
 Sum of electronic and zero-point Energies=          -3607.224240
 Sum of electronic and thermal Energies=             -3607.208742
 Sum of electronic and thermal Enthalpies=           -3607.207798
 Sum of electronic and thermal Free Energies=        -3607.268468

                     E (Thermal)             CV                S
                      KCal/Mol        Cal/Mol-Kelvin    Cal/Mol-Kelvin
 Total                  141.133             56.372            127.690
 Electronic               0.000              0.000              0.000
 Translational            0.889              2.981             42.892
 Rotational               0.889              2.981             33.103
 Vibrational            139.356             50.410             51.696
 Vibration     1          0.594              1.983              5.645
 Vibration     2          0.596              1.975              4.606
 Vibration     3          0.599              1.967              4.063
 Vibration     4          0.600              1.962              3.870
 Vibration     5          0.602              1.955              3.619
 Vibration     6          0.612              1.922              2.925
 Vibration     7          0.617              1.906              2.707
 Vibration     8          0.624              1.883              2.464
 Vibration     9          0.631              1.861              2.285
 Vibration    10          0.639              1.835              2.099
 Vibration    11          0.648              1.807              1.939
 Vibration    12          0.662              1.766              1.745
 Vibration    13          0.669              1.744              1.653
 Vibration    14          0.678              1.717              1.556
 Vibration    15          0.725              1.581              1.180
 Vibration    16          0.741              1.537              1.086
 Vibration    17          0.769              1.463              0.950
 Vibration    18          0.785              1.420              0.882
 Vibration    19          0.841              1.282              0.696
 Vibration    20          0.875              1.205              0.609
 Vibration    21          0.885              1.183              0.587
 Vibration    22          0.932              1.085              0.494
 Vibration    23          0.975              0.999              0.424

 Optimization completed.
    -- Stationary point found.
 Normal termination of Gaussian 16 at Sun Feb 28 17:45:46 2021.
