 Gaussian 16, Revision A.03,
 Gaussian 16:  ES64L-G16RevA.03 25-Dec-2016

 ----------------------------------------------------------------------
 # wB97XD def2tzvp, opt=(ts, noeigen, calcfc, maxcycles=70, maxstep=8),
  freq=noraman, scrf=(iefpcm, solvent=water)
 ----------------------------------------------------------------------

 ------------------------
 1_iteration/TS-991-1.out
 ------------------------
 Symbolic Z-matrix:
 Charge =  0 Multiplicity = 1

 SCF Done:  E(RwB97XD) =  -4067.02864430     A.U. after   16 cycles
 SCF Done:  E(RwB97XD) =  -4067.02931093     A.U. after   14 cycles
 SCF Done:  E(RwB97XD) =  -4067.02977983     A.U. after   13 cycles
 SCF Done:  E(RwB97XD) =  -4067.03048205     A.U. after   13 cycles
 SCF Done:  E(RwB97XD) =  -4067.03143712     A.U. after   13 cycles
 SCF Done:  E(RwB97XD) =  -4067.03175758     A.U. after   13 cycles
 SCF Done:  E(RwB97XD) =  -4067.03158388     A.U. after   12 cycles
 SCF Done:  E(RwB97XD) =  -4067.03159903     A.U. after   13 cycles
 SCF Done:  E(RwB97XD) =  -4067.03150752     A.U. after   13 cycles
 SCF Done:  E(RwB97XD) =  -4067.03176995     A.U. after   12 cycles
 SCF Done:  E(RwB97XD) =  -4067.03185789     A.U. after    9 cycles
 SCF Done:  E(RwB97XD) =  -4067.03185715     A.U. after   11 cycles
 SCF Done:  E(RwB97XD) =  -4067.03186015     A.U. after   10 cycles
 SCF Done:  E(RwB97XD) =  -4067.03186081     A.U. after   10 cycles
 SCF Done:  E(RwB97XD) =  -4067.03183374     A.U. after   12 cycles
 SCF Done:  E(RwB97XD) =  -4067.03186221     A.U. after   12 cycles
 SCF Done:  E(RwB97XD) =  -4067.03186285     A.U. after    8 cycles
 SCF Done:  E(RwB97XD) =  -4067.03186348     A.U. after    9 cycles
 SCF Done:  E(RwB97XD) =  -4067.03186327     A.U. after    7 cycles
 Optimization completed.
    -- Stationary point found.
 Normal termination of Gaussian 16 at Sun Feb 28 20:54:08 2021.

 ---------------------------------------------------------------------
 #N Geom=AllCheck Guess=TCheck SCRF=Check GenChk RwB97XD/def2TZVP Freq
 ---------------------------------------------------------------------

 Structure from the checkpoint file:  "/beegfs/scratch/user/q/tla25/Gau-102474.chk"
 ------------------------
 1_iteration/TS-991-1.out
 ------------------------
 Charge =  0 Multiplicity = 1

                         Standard orientation:
 ---------------------------------------------------------------------
 Center     Atomic      Atomic             Coordinates (Angstroms)
 Number     Number       Type             X           Y           Z
 ---------------------------------------------------------------------
      1          6           0       -1.050332   -0.337516   -0.337148
      2          6           0        0.352135   -0.764536   -0.291954
      3          8           0        0.669294   -1.947026   -0.311468
      4          6           0       -1.548243    0.943903   -0.131559
      5          6           0       -1.498698    0.513800    2.617360
      6          1           0       -1.169247    0.802659    3.614345
      7          1           0       -2.571961    0.337666    2.625117
      8          1           0       -0.984741   -0.399791    2.321102
      9          7           0       -1.188798    1.555961    1.645367
     10          1           0       -1.721353    2.405023    1.803059
     11          1           0       -0.202576    1.793646    1.665710
     12         17           0       -3.277534    1.193043   -0.167775
     13         17           0       -0.774162    2.340434   -0.963430
     14         35           0       -2.263066   -1.805766   -0.350685
     15          7           0        1.305232    0.225144   -0.173848
     16          6           0        2.695353    0.042778   -0.085580
     17          6           0        3.283166   -1.058737    0.533309
     18          6           0        4.664746   -1.139569    0.625366
     19          6           0        5.476265   -0.134888    0.119280
     20          6           0        4.888889    0.966898   -0.486199
     21          6           0        3.511366    1.054903   -0.591637
     22          1           0        1.029252    1.153481   -0.445543
     23          1           0        2.662755   -1.843704    0.935298
     24          1           0        5.109065   -2.001596    1.107387
     25          1           0        6.553139   -0.207776    0.197948
     26          1           0        5.504342    1.763324   -0.885187
     27          1           0        3.060200    1.916021   -1.071058
 ---------------------------------------------------------------------

 SCF Done:  E(RwB97XD) =  -4067.03186327     A.U. after    1 cycles

 The electronic state is 1-A.
 Alpha  occ. eigenvalues -- -483.12697-101.72319-101.72241 -62.67524 -56.46654
 Alpha  occ. eigenvalues --  -56.46281 -56.46270 -19.21594 -14.50615 -14.46792
 Alpha  occ. eigenvalues --  -10.46909 -10.40263 -10.33882 -10.32766 -10.32526
 Alpha  occ. eigenvalues --  -10.29194 -10.29083 -10.29075 -10.28657 -10.28534
 Alpha  occ. eigenvalues --   -9.60900  -9.60844  -8.81639  -7.35598  -7.35499
 Alpha  occ. eigenvalues --   -7.34656  -7.34616  -7.34609  -7.34577  -6.63832
 Alpha  occ. eigenvalues --   -6.62637  -6.62608  -2.74214  -2.73867  -2.73845
 Alpha  occ. eigenvalues --   -2.72878  -2.72878  -1.14958  -1.07035  -1.04524
 Alpha  occ. eigenvalues --   -1.01812  -0.95868  -0.94659  -0.91651  -0.85599
 Alpha  occ. eigenvalues --   -0.85318  -0.81870  -0.80051  -0.74442  -0.71887
 Alpha  occ. eigenvalues --   -0.69068  -0.66052  -0.64773  -0.63016  -0.61001
 Alpha  occ. eigenvalues --   -0.59545  -0.58268  -0.56656  -0.55753  -0.54443
 Alpha  occ. eigenvalues --   -0.52759  -0.52273  -0.51839  -0.50705  -0.49421
 Alpha  occ. eigenvalues --   -0.49052  -0.47479  -0.47022  -0.45000  -0.44206
 Alpha  occ. eigenvalues --   -0.43166  -0.42979  -0.41157  -0.40679  -0.40287
 Alpha  occ. eigenvalues --   -0.38774  -0.37319  -0.34735  -0.33598  -0.31149
 Alpha  occ. eigenvalues --   -0.28273
 Alpha virt. eigenvalues --    0.01741   0.03785   0.05140   0.05269   0.06845
 Alpha virt. eigenvalues --    0.10088   0.12773   0.13325   0.13998   0.14791
 Alpha virt. eigenvalues --    0.15640   0.16034   0.16934   0.17981   0.18335

 Mulliken charges:
               1
     1  C   -0.247872
     2  C    0.346538
     3  O   -0.484161
     4  C    0.110985
     5  C   -0.297187
     6  H    0.170388
     7  H    0.164282
     8  H    0.164270
     9  N   -0.313604
    10  H    0.302189
    11  H    0.291096
    12  Cl  -0.020083
    13  Cl  -0.068386
    14  Br  -0.102588
    15  N   -0.284233
    16  C    0.299563
    17  C   -0.301886
    18  C   -0.092735
    19  C   -0.190074
    20  C   -0.100119
    21  C   -0.293164
    22  H    0.221152
    23  H    0.150140
    24  H    0.143379
    25  H    0.142205
    26  H    0.144523
    27  H    0.145382
 Sum of Mulliken charges =  -0.00000

 Dipole moment (field-independent basis, Debye):
    X=             -0.7092    Y=              9.0961    Z=              6.2057  Tot=             11.0342
 Quadrupole moment (field-independent basis, Debye-Ang):
   XX=           -115.1897   YY=           -119.3594   ZZ=           -110.7815
   XY=             -1.8640   XZ=             -7.6161   YZ=              1.8039

  Exact polarizability: 320.209  -1.692 271.808  -2.870 -12.143 195.007
 Approx polarizability: 242.118   1.072 232.055  -0.998 -11.949 170.425

 ******    1 imaginary frequencies (negative Signs) ******

                      1                      2                      3
                      A                      A                      A
 Frequencies --   -367.7597                18.9426                30.0415
 Red. masses --      5.7350                 4.1347                 5.3746
 Frc consts  --      0.4570                 0.0009                 0.0029
 IR Inten    --    733.5173                 1.1520                 3.1376

                      4                      5                      6
                      A                      A                      A
 Frequencies --     50.4787                65.3776                84.6513
 Red. masses --     10.7305                 6.6634                 2.7070
 Frc consts  --      0.0161                 0.0168                 0.0114
 IR Inten    --      8.1760                 0.0723                 1.5710

                      7                      8                      9
                      A                      A                      A
 Frequencies --     88.0797               126.1843               156.8731
 Red. masses --      7.1514                 3.5518                 2.6292
 Frc consts  --      0.0327                 0.0333                 0.0381
 IR Inten    --      3.1227                15.2717                 0.0836

                     10                     11                     12
                      A                      A                      A
 Frequencies --    166.3441               195.4088               201.4323
 Red. masses --      2.5531                 3.7844                 7.2031
 Frc consts  --      0.0416                 0.0851                 0.1722
 IR Inten    --      1.4719                 4.0838                14.4332

                     13                     14                     15
                      A                      A                      A
 Frequencies --    228.3135               253.2248               270.1819
 Red. masses --      8.6724                 4.1775                 6.2714
 Frc consts  --      0.2663                 0.1578                 0.2697
 IR Inten    --      5.8471                 3.2936                 7.5546

                     16                     17                     18
                      A                      A                      A
 Frequencies --    281.7253               314.3437               344.8591
 Red. masses --      8.5748                 4.4592                10.7740
 Frc consts  --      0.4010                 0.2596                 0.7549
 IR Inten    --      4.5388                14.4717                22.0967

                     19                     20                     21
                      A                      A                      A
 Frequencies --    383.2179               412.0448               423.2526
 Red. masses --      6.3149                13.2969                 2.9676
 Frc consts  --      0.5464                 1.3301                 0.3132
 IR Inten    --      7.9715                 9.3824                 0.8424

                     22                     23                     24
                      A                      A                      A
 Frequencies --    520.9767               530.9323               557.8946
 Red. masses --      2.8263                 6.2957                 2.0692
 Frc consts  --      0.4520                 1.0456                 0.3795
 IR Inten    --      7.0662               129.4888                99.3465

                     25                     26                     27
                      A                      A                      A
 Frequencies --    584.0612               634.4717               671.5275
 Red. masses --      2.2421                 5.9885                 1.6178
 Frc consts  --      0.4506                 1.4203                 0.4298
 IR Inten    --     96.4725                 4.6731                10.8826

                     28                     29                     30
                      A                      A                      A
 Frequencies --    717.6036               730.0841               756.3148
 Red. masses --      1.8648                 7.1256                 4.4034
 Frc consts  --      0.5658                 2.2378                 1.4840
 IR Inten    --     62.7158               207.1659                64.0101

                     31                     32                     33
                      A                      A                      A
 Frequencies --    775.3684               788.1066               858.8911
 Red. masses --      7.0523                 2.0917                 1.3996
 Frc consts  --      2.4980                 0.7655                 0.6083
 IR Inten    --     75.9581                83.8202                14.0934

                     34                     35                     36
                      A                      A                      A
 Frequencies --    862.9105               914.5477               940.0465
 Red. masses --      3.5161                 3.7084                 1.7173
 Frc consts  --      1.5426                 1.8275                 0.8941
 IR Inten    --     33.1834                34.9050                 6.3645

                     37                     38                     39
                      A                      A                      A
 Frequencies --   1002.8614              1016.5077              1019.8722
 Red. masses --      1.3597                 1.1154                 1.3860
 Frc consts  --      0.8057                 0.6791                 0.8494
 IR Inten    --      0.1427                14.1680                 0.8268

                     40                     41                     42
                      A                      A                      A
 Frequencies --   1021.4697              1033.3443              1057.7692
 Red. masses --      4.5866                 5.1870                 1.2399
 Frc consts  --      2.8196                 3.2633                 0.8174
 IR Inten    --      0.3169                 9.1256                49.1050

                     43                     44                     45
                      A                      A                      A
 Frequencies --   1064.4419              1082.0971              1121.2411
 Red. masses --      2.0119                 4.3929                 1.5388
 Frc consts  --      1.3431                 3.0306                 1.1398
 IR Inten    --     24.1506                58.7551                12.3432

                     46                     47                     48
                      A                      A                      A
 Frequencies --   1182.6880              1208.6661              1233.5942
 Red. masses --      1.1270                 1.1277                 1.6009
 Frc consts  --      0.9288                 0.9706                 1.4353
 IR Inten    --      4.0714                16.9542               166.4000

                     49                     50                     51
                      A                      A                      A
 Frequencies --   1250.6727              1280.4054              1337.5680
 Red. masses --      2.6433                 3.4308                 4.0955
 Frc consts  --      2.4361                 3.3139                 4.3170
 IR Inten    --    798.2359                54.1196               426.5784

                     52                     53                     54
                      A                      A                      A
 Frequencies --   1346.3416              1362.2275              1386.4594
 Red. masses --      1.3765                 1.5248                 6.3740
 Frc consts  --      1.4701                 1.6671                 7.2190
 IR Inten    --     31.7457                20.6490               685.2532

                     55                     56                     57
                      A                      A                      A
 Frequencies --   1460.8758              1481.9330              1492.0854
 Red. masses --      1.2059                 2.1046                 1.0451
 Frc consts  --      1.5163                 2.7232                 1.3709
 IR Inten    --     11.2082               185.8970                30.5030

                     58                     59                     60
                      A                      A                      A
 Frequencies --   1499.5332              1546.8271              1572.8871
 Red. masses --      1.0317                 2.4241                 1.8917
 Frc consts  --      1.3668                 3.4173                 2.7575
 IR Inten    --     12.5335               217.1874               502.3263

                     61                     62                     63
                      A                      A                      A
 Frequencies --   1637.2915              1664.6486              1673.0551
 Red. masses --      1.0927                 5.6348                 4.8643
 Frc consts  --      1.7259                 9.1997                 8.0222
 IR Inten    --     80.1089               104.6104                58.8216

                     64                     65                     66
                      A                      A                      A
 Frequencies --   1693.3025              3077.1901              3158.5162
 Red. masses --      7.5187                 1.0326                 1.1052
 Frc consts  --     12.7017                 5.7610                 6.4963
 IR Inten    --    643.2879                18.1240                 6.0337

                     67                     68                     69
                      A                      A                      A
 Frequencies --   3176.1227              3188.8789              3198.7578
 Red. masses --      1.1063                 1.0883                 1.0882
 Frc consts  --      6.5755                 6.5204                 6.5602
 IR Inten    --      7.7249                11.6411                 1.6174

                     70                     71                     72
                      A                      A                      A
 Frequencies --   3208.1149              3222.4987              3260.7129
 Red. masses --      1.0932                 1.0979                 1.0928
 Frc consts  --      6.6289                 6.7174                 6.8459
 IR Inten    --     27.8011                22.6205                 1.2059

                     73                     74                     75
                      A                      A                      A
 Frequencies --   3516.3373              3600.3481              3623.1885
 Red. masses --      1.0505                 1.0969                 1.0766
 Frc consts  --      7.6531                 8.3774                 8.3269
 IR Inten    --     71.2904                70.5809               197.7938

 - Thermochemistry -
 -------------------
 Temperature   298.150 Kelvin.  Pressure   1.00000 Atm.
 Atom     1 has atomic number  6 and mass  12.00000

 Molecular mass:   323.94318 amu.
 Principal axes and moments of inertia in atomic units:
                           1         2         3
     Eigenvalues --  3256.963179063.28466**********
           X            0.99972  -0.02103  -0.01049
           Y            0.02103   0.99978   0.00010
           Z            0.01049  -0.00032   0.99994
 This molecule is an asymmetric top.
 Rotational symmetry number  1.
 Warning -- assumption of classical behavior for rotation
           may cause significant error
 Rotational temperatures (Kelvin)      0.02659     0.00956     0.00805
 Rotational constants (GHZ):           0.55412     0.19913     0.16769
    1 imaginary frequencies ignored.
 Zero-point vibrational energy     525759.0 (Joules/Mol)
                                  125.65943 (Kcal/Mol)
 Warning -- explicit consideration of  24 degrees of freedom as
           vibrations may cause significant error
 Vibrational temperatures:     27.25    43.22    72.63    94.06   121.79
          (Kelvin)            126.73   181.55   225.71   239.33   281.15
                              289.82   328.49   364.33   388.73   405.34
                              452.27   496.18   551.37   592.84   608.97
                              749.57   763.89   802.69   840.33   912.86
                              966.18  1032.47  1050.43  1088.17  1115.58
                             1133.91  1235.75  1241.54  1315.83  1352.52
                             1442.89  1462.53  1467.37  1469.67  1486.75
                             1521.89  1531.49  1556.90  1613.22  1701.62
                             1739.00  1774.87  1799.44  1842.22  1924.46
                             1937.09  1959.94  1994.81  2101.87  2132.17
                             2146.78  2157.49  2225.54  2263.03  2355.70
                             2395.06  2407.15  2436.28  4427.39  4544.40
                             4569.73  4588.09  4602.30  4615.76  4636.46
                             4691.44  5059.23  5180.10  5212.96

 Zero-point correction=                           0.200251 (Hartree/Particle)
 Thermal correction to Energy=                    0.216812
 Thermal correction to Enthalpy=                  0.217756
 Thermal correction to Gibbs Free Energy=         0.152786
 Sum of electronic and zero-point Energies=          -4066.831612
 Sum of electronic and thermal Energies=             -4066.815051
 Sum of electronic and thermal Enthalpies=           -4066.814107
 Sum of electronic and thermal Free Energies=        -4066.879077

                     E (Thermal)             CV                S
                      KCal/Mol        Cal/Mol-Kelvin    Cal/Mol-Kelvin
 Total                  136.051             58.892            136.741
 Electronic               0.000              0.000              0.000
 Translational            0.889              2.981             43.222
 Rotational               0.889              2.981             34.118
 Vibrational            134.274             52.931             59.401
 Vibration     1          0.593              1.986              6.742
 Vibration     2          0.594              1.984              5.827
 Vibration     3          0.595              1.977              4.799
 Vibration     4          0.597              1.971              4.288
 Vibration     5          0.601              1.960              3.780
 Vibration     6          0.601              1.958              3.702
 Vibration     7          0.611              1.927              3.003
 Vibration     8          0.621              1.895              2.587
 Vibration     9          0.624              1.884              2.476
 Vibration    10          0.636              1.846              2.176
 Vibration    11          0.638              1.838              2.120
 Vibration    12          0.651              1.798              1.892
 Vibration    13          0.664              1.757              1.708
 Vibration    14          0.674              1.728              1.595
 Vibration    15          0.681              1.707              1.523
 Vibration    16          0.702              1.646              1.339
 Vibration    17          0.723              1.586              1.190
 Vibration    18          0.752              1.506              1.026
 Vibration    19          0.776              1.444              0.919
 Vibration    20          0.785              1.420              0.881
 Vibration    21          0.876              1.204              0.608
 Vibration    22          0.886              1.182              0.585
 Vibration    23          0.913              1.122              0.528
 Vibration    24          0.941              1.066              0.478

 Optimization completed.
    -- Stationary point found.
 Normal termination of Gaussian 16 at Sun Feb 28 21:53:47 2021.
