 Gaussian 16, Revision A.03,
 Gaussian 16:  ES64L-G16RevA.03 25-Dec-2016

 ----------------------------------------------------------------------
 # wB97XD def2tzvp, opt=(ts, noeigen, calcfc, maxcycles=70, maxstep=3),
  freq=noraman, scrf=(iefpcm, solvent=water)
 ----------------------------------------------------------------------

 -----------------------
 0_iteration/TS-99-0.out
 -----------------------
 Symbolic Z-matrix:
 Charge =  0 Multiplicity = 1

 SCF Done:  E(RwB97XD) =  -652.851823064     A.U. after   15 cycles
 SCF Done:  E(RwB97XD) =  -652.851823946     A.U. after    8 cycles
 Optimization completed.
    -- Stationary point found.
 Normal termination of Gaussian 16 at Sun Mar 28 08:34:21 2021.

 ---------------------------------------------------------------------
 #N Geom=AllCheck Guess=TCheck SCRF=Check GenChk RwB97XD/def2TZVP Freq
 ---------------------------------------------------------------------

 Structure from the checkpoint file:  "/beegfs/scratch/user/q/tla25/Gau-30060.chk"
 -----------------------
 0_iteration/TS-99-0.out
 -----------------------
 Charge =  0 Multiplicity = 1

                         Standard orientation:
 ---------------------------------------------------------------------
 Center     Atomic      Atomic             Coordinates (Angstroms)
 Number     Number       Type             X           Y           Z
 ---------------------------------------------------------------------
      1          6           0       -1.321878   -0.772412    0.152574
      2          6           0       -2.698732   -0.415446    0.086662
      3          8           0       -3.148973    0.757962    0.147470
      4          6           0       -0.361797    0.248064    0.437603
      5          6           0        0.157667    2.787857   -0.983953
      6          1           0       -0.048654    3.358071   -1.891385
      7          1           0       -0.093146    3.402785   -0.122683
      8          1           0        1.220799    2.548253   -0.950250
      9          7           0       -0.616271    1.552724   -0.940912
     10          1           0       -1.613134    1.696540   -0.771516
     11          1           0       -0.520112    1.018983   -1.794904
     12          6           0        1.093034   -0.090918    0.236656
     13          6           0        1.551896   -0.531611   -1.005700
     14          6           0        2.886805   -0.827001   -1.215956
     15          6           0        3.800269   -0.698978   -0.177525
     16          6           0        3.360536   -0.270569    1.063428
     17          6           0        2.021063    0.038061    1.265134
     18          1           0        0.851933   -0.660291   -1.822107
     19          1           0        3.215126   -1.161482   -2.191882
     20          1           0        4.845370   -0.931475   -0.337658
     21          1           0        4.060514   -0.168408    1.883116
     22          1           0        1.707487    0.375215    2.243215
     23          6           0       -0.614829    1.167879    1.618618
     24          1           0       -0.474857    0.593189    2.535871
     25          1           0        0.074358    2.012001    1.644806
     26          1           0       -1.637915    1.528366    1.602199
     27          6           0       -0.933276   -2.194496   -0.192075
     28          1           0       -1.105762   -2.464054   -1.242441
     29          1           0        0.116493   -2.388682    0.014954
     30          1           0       -1.493253   -2.912022    0.417170
     31          7           0       -3.628275   -1.427818   -0.090780
     32          1           0       -3.325945   -2.314467   -0.453378
     33          1           0       -4.520238   -1.113137   -0.433834
 ---------------------------------------------------------------------

 SCF Done:  E(RwB97XD) =  -652.851823946     A.U. after    1 cycles

 The electronic state is 1-A.
 Alpha  occ. eigenvalues --  -19.18576 -14.46952 -14.42426 -10.35866 -10.34829
 Alpha  occ. eigenvalues --  -10.31312 -10.30270 -10.29285 -10.29235 -10.29202
 Alpha  occ. eigenvalues --  -10.29158 -10.29109 -10.26827 -10.26654 -10.24487
 Alpha  occ. eigenvalues --   -1.10582  -1.02852  -0.97666  -0.97189  -0.91119
 Alpha  occ. eigenvalues --   -0.85561  -0.84642  -0.82258  -0.78600  -0.74421
 Alpha  occ. eigenvalues --   -0.72782  -0.70460  -0.67345  -0.63966  -0.61562
 Alpha  occ. eigenvalues --   -0.60809  -0.58862  -0.56269  -0.55384  -0.54988
 Alpha  occ. eigenvalues --   -0.53776  -0.53018  -0.51770  -0.51079  -0.49925
 Alpha  occ. eigenvalues --   -0.49182  -0.48238  -0.47362  -0.47083  -0.46431
 Alpha  occ. eigenvalues --   -0.45374  -0.45000  -0.44093  -0.42572  -0.42049
 Alpha  occ. eigenvalues --   -0.40302  -0.34382  -0.34003  -0.33282  -0.32289
 Alpha  occ. eigenvalues --   -0.24867
 Alpha virt. eigenvalues --    0.02978   0.05107   0.08873   0.10161   0.12390
 Alpha virt. eigenvalues --    0.13362   0.13757   0.14894   0.14927   0.17044
 Alpha virt. eigenvalues --    0.17189   0.17655   0.18051   0.18393   0.19137

 Mulliken charges:
               1
     1  C   -0.277749
     2  C    0.344730
     3  O   -0.621836
     4  C    0.332497
     5  C   -0.297386
     6  H    0.150385
     7  H    0.155338
     8  H    0.151719
     9  N   -0.317569
    10  H    0.274680
    11  H    0.260471
    12  C    0.094394
    13  C   -0.300022
    14  C   -0.137004
    15  C   -0.142650
    16  C   -0.156677
    17  C   -0.213033
    18  H    0.164641
    19  H    0.143496
    20  H    0.144807
    21  H    0.142550
    22  H    0.154059
    23  C   -0.451546
    24  H    0.140811
    25  H    0.142928
    26  H    0.163508
    27  C   -0.449281
    28  H    0.123140
    29  H    0.143590
    30  H    0.126473
    31  N   -0.505668
    32  H    0.264616
    33  H    0.251590
 Sum of Mulliken charges =  -0.00000

 Dipole moment (field-independent basis, Debye):
    X=              5.0538    Y=              0.9748    Z=             -3.6887  Tot=              6.3323
 Quadrupole moment (field-independent basis, Debye-Ang):
   XX=            -98.6677   YY=            -85.7092   ZZ=            -83.6350
   XY=              6.3842   XZ=              7.7899   YZ=              0.8451

  Exact polarizability: 283.068   9.501 207.068  -0.045   5.871 202.673
 Approx polarizability: 208.638   0.366 167.816   1.423   6.023 175.142

 ******    1 imaginary frequencies (negative Signs) ******

                      1                      2                      3
                      A                      A                      A
 Frequencies --   -396.7722                50.0884                76.7646
 Red. masses --      5.7109                 3.8008                 3.2847
 Frc consts  --      0.5297                 0.0056                 0.0114
 IR Inten    --    891.2823                 1.2761                 2.7372

                      4                      5                      6
                      A                      A                      A
 Frequencies --     87.9537                99.1663               115.3260
 Red. masses --      3.1834                 3.6093                 3.5417
 Frc consts  --      0.0145                 0.0209                 0.0278
 IR Inten    --     19.8172                 5.4701                 5.2293

                      7                      8                      9
                      A                      A                      A
 Frequencies --    141.4800               178.3513               203.9149
 Red. masses --      1.5395                 2.3089                 1.2585
 Frc consts  --      0.0182                 0.0433                 0.0308
 IR Inten    --     15.3479                 9.4302                 4.4829

                     10                     11                     12
                      A                      A                      A
 Frequencies --    228.5276               254.4885               266.7305
 Red. masses --      1.7864                 3.7060                 3.6708
 Frc consts  --      0.0550                 0.1414                 0.1539
 IR Inten    --     10.8189                37.9487                 5.5013

                     13                     14                     15
                      A                      A                      A
 Frequencies --    290.5245               328.0120               344.5755
 Red. masses --      3.0526                 1.8450                 1.9759
 Frc consts  --      0.1518                 0.1170                 0.1382
 IR Inten    --      6.2194                 6.6130                 2.0986

                     16                     17                     18
                      A                      A                      A
 Frequencies --    357.7982               380.8405               394.5133
 Red. masses --      2.5892                 2.8641                 2.4497
 Frc consts  --      0.1953                 0.2448                 0.2246
 IR Inten    --     49.6996                 8.6377                25.7503

                     19                     20                     21
                      A                      A                      A
 Frequencies --    423.2978               431.6701               466.2127
 Red. masses --      1.8670                 2.1653                 2.1732
 Frc consts  --      0.1971                 0.2377                 0.2783
 IR Inten    --    194.7574               136.5515                 5.4953

                     22                     23                     24
                      A                      A                      A
 Frequencies --    485.9151               527.1554               560.4591
 Red. masses --      1.3487                 3.2099                 3.5412
 Frc consts  --      0.1876                 0.5256                 0.6554
 IR Inten    --    170.9735                 5.3996                51.8988

                     25                     26                     27
                      A                      A                      A
 Frequencies --    593.1855               626.2220               639.1275
 Red. masses --      3.1435                 4.0871                 6.3191
 Frc consts  --      0.6517                 0.9443                 1.5208
 IR Inten    --     16.5645                84.6570                 2.8100

                     28                     29                     30
                      A                      A                      A
 Frequencies --    699.5128               717.0616               737.3584
 Red. masses --      3.8664                 1.4521                 1.3848
 Frc consts  --      1.1147                 0.4399                 0.4436
 IR Inten    --     26.5804                54.1644                83.2297

                     31                     32                     33
                      A                      A                      A
 Frequencies --    793.1597               801.2845               844.8899
 Red. masses --      7.5022                 2.2987                 2.8880
 Frc consts  --      2.7807                 0.8696                 1.2146
 IR Inten    --     77.6466                15.2719                10.3602

                     34                     35                     36
                      A                      A                      A
 Frequencies --    882.5676               963.1097               965.8590
 Red. masses --      1.2454                 1.6383                 1.4175
 Frc consts  --      0.5715                 0.8954                 0.7791
 IR Inten    --      0.8994                94.0186                19.9194

                     37                     38                     39
                      A                      A                      A
 Frequencies --   1017.6549              1025.7677              1027.7025
 Red. masses --      1.3580                 1.4443                 2.8031
 Frc consts  --      0.8286                 0.8954                 1.7443
 IR Inten    --      2.9127                 5.7761                 5.0665

                     40                     41                     42
                      A                      A                      A
 Frequencies --   1033.7516              1042.6388              1055.9711
 Red. masses --      1.3322                 1.5580                 1.6702
 Frc consts  --      0.8388                 0.9979                 1.0973
 IR Inten    --      2.2053               125.9374                71.5993

                     43                     44                     45
                      A                      A                      A
 Frequencies --   1062.5023              1065.2437              1085.9590
 Red. masses --      1.7411                 1.5524                 1.7239
 Frc consts  --      1.1581                 1.0379                 1.1978
 IR Inten    --     14.5155                45.1423               198.7883

                     46                     47                     48
                      A                      A                      A
 Frequencies --   1098.8921              1108.3723              1118.5301
 Red. masses --      2.1824                 2.0038                 1.6451
 Frc consts  --      1.5527                 1.4504                 1.2126
 IR Inten    --     34.7953                19.4716                25.9719

                     49                     50                     51
                      A                      A                      A
 Frequencies --   1151.4010              1186.0251              1190.8187
 Red. masses --      1.9322                 1.1412                 3.1966
 Frc consts  --      1.5092                 0.9458                 2.6707
 IR Inten    --     45.4604                 0.4468                 4.9093

                     52                     53                     54
                      A                      A                      A
 Frequencies --   1213.6193              1224.2047              1299.3849
 Red. masses --      1.3372                 1.1592                 4.1391
 Frc consts  --      1.1604                 1.0236                 4.1175
 IR Inten    --     55.9124                14.6038                36.8988

                     55                     56                     57
                      A                      A                      A
 Frequencies --   1322.5922              1341.2869              1367.3578
 Red. masses --      4.2561                 1.3875                 2.0138
 Frc consts  --      4.3864                 1.4707                 2.2183
 IR Inten    --      8.8552                17.6626                20.5359

                     58                     59                     60
                      A                      A                      A
 Frequencies --   1373.0432              1399.5670              1413.2438
 Red. masses --      1.9368                 2.3807                 1.7293
 Frc consts  --      2.1513                 2.7475                 2.0349
 IR Inten    --     32.9280               806.8182               375.8002

                     61                     62                     63
                      A                      A                      A
 Frequencies --   1427.7971              1460.4685              1486.5193
 Red. masses --      1.2714                 1.2100                 1.3503
 Frc consts  --      1.5271                 1.5206                 1.7581
 IR Inten    --     37.3082                27.8920                44.8577

                     64                     65                     66
                      A                      A                      A
 Frequencies --   1493.0120              1494.7273              1500.1065
 Red. masses --      1.1594                 1.0550                 1.3401
 Frc consts  --      1.5227                 1.3887                 1.7768
 IR Inten    --      7.9900                18.5631                36.7652

                     67                     68                     69
                      A                      A                      A
 Frequencies --   1506.6286              1512.3028              1517.6318
 Red. masses --      1.0582                 1.0747                 1.0875
 Frc consts  --      1.4153                 1.4481                 1.4757
 IR Inten    --      7.3704                88.0220                66.9042

                     70                     71                     72
                      A                      A                      A
 Frequencies --   1548.9139              1590.5902              1642.1434
 Red. masses --      2.2739                 5.3615                 1.2090
 Frc consts  --      3.2143                 7.9920                 1.9209
 IR Inten    --      4.2017               598.2374               250.0408

                     73                     74                     75
                      A                      A                      A
 Frequencies --   1653.7881              1666.8373              1678.1339
 Red. masses --      5.5815                 1.0933                 5.7440
 Frc consts  --      8.9942                 1.7896                 9.5306
 IR Inten    --      5.7931                63.2219                 0.1313

                     76                     77                     78
                      A                      A                      A
 Frequencies --   2993.2241              3044.8241              3060.2861
 Red. masses --      1.0523                 1.0927                 1.0354
 Frc consts  --      5.5546                 5.9688                 5.7133
 IR Inten    --    138.5874                64.5036                57.6720

                     79                     80                     81
                      A                      A                      A
 Frequencies --   3068.0258              3130.7797              3132.6290
 Red. masses --      1.0402                 1.1029                 1.1023
 Frc consts  --      5.7686                 6.3691                 6.3731
 IR Inten    --     36.9240                33.7404                24.5120

                     82                     83                     84
                      A                      A                      A
 Frequencies --   3148.7881              3167.6507              3193.6924
 Red. masses --      1.0909                 1.1029                 1.0862
 Frc consts  --      6.3727                 6.5204                 6.5273
 IR Inten    --     29.6842                18.0104                 4.8613

                     85                     86                     87
                      A                      A                      A
 Frequencies --   3195.4837              3200.4474              3209.7191
 Red. masses --      1.0986                 1.0886                 1.0931
 Frc consts  --      6.6095                 6.5694                 6.6352
 IR Inten    --      3.0220                 3.0155                29.1505

                     88                     89                     90
                      A                      A                      A
 Frequencies --   3220.5347              3231.6573              3430.3506
 Red. masses --      1.0969                 1.0939                 1.0643
 Frc consts  --      6.7028                 6.7313                 7.3790
 IR Inten    --     24.8246                10.6923               127.6495

                     91                     92                     93
                      A                      A                      A
 Frequencies --   3595.4411              3613.2525              3727.7231
 Red. masses --      1.0842                 1.0470                 1.1004
 Frc consts  --      8.2576                 8.0538                 9.0093
 IR Inten    --     42.6976                42.2860                43.2482

 - Thermochemistry -
 -------------------
 Temperature   298.150 Kelvin.  Pressure   1.00000 Atm.
 Atom     1 has atomic number  6 and mass  12.00000

 Molecular mass:   206.14191 amu.
 Principal axes and moments of inertia in atomic units:
                           1         2         3
     Eigenvalues --  1783.488354404.922225031.99399
           X            0.99995   0.00992   0.00325
           Y           -0.00997   0.99982   0.01624
           Z           -0.00309  -0.01627   0.99986
 This molecule is an asymmetric top.
 Rotational symmetry number  1.
 Warning -- assumption of classical behavior for rotation
           may cause significant error
 Rotational temperatures (Kelvin)      0.04856     0.01966     0.01721
 Rotational constants (GHZ):           1.01192     0.40971     0.35865
    1 imaginary frequencies ignored.
 Zero-point vibrational energy     752012.9 (Joules/Mol)
                                  179.73541 (Kcal/Mol)
 Warning -- explicit consideration of  24 degrees of freedom as
           vibrations may cause significant error
 Vibrational temperatures:     72.07   110.45   126.55   142.68   165.93
          (Kelvin)            203.56   256.61   293.39   328.80   366.15
                              383.77   418.00   471.94   495.77   514.79
                              547.94   567.62   609.03   621.08   670.78
                              699.12   758.46   806.38   853.46   900.99
                              919.56  1006.44  1031.69  1060.89  1141.18
                             1152.87  1215.61  1269.82  1385.70  1389.66
                             1464.18  1475.85  1478.63  1487.34  1500.12
                             1519.31  1528.70  1532.65  1562.45  1581.06
                             1594.70  1609.32  1656.61  1706.43  1713.32
                             1746.13  1761.36  1869.53  1902.92  1929.81
                             1967.32  1975.50  2013.66  2033.34  2054.28
                             2101.29  2138.77  2148.11  2150.58  2158.32
                             2167.70  2175.87  2183.53  2228.54  2288.50
                             2362.68  2379.43  2398.21  2414.46  4306.58
                             4380.82  4403.07  4414.20  4504.49  4507.15
                             4530.40  4557.54  4595.01  4597.59  4604.73
                             4618.07  4633.63  4649.63  4935.51  5173.04
                             5198.66  5363.36

 Zero-point correction=                           0.286427 (Hartree/Particle)
 Thermal correction to Energy=                    0.301662
 Thermal correction to Enthalpy=                  0.302606
 Thermal correction to Gibbs Free Energy=         0.244953
 Sum of electronic and zero-point Energies=           -652.565397
 Sum of electronic and thermal Energies=              -652.550162
 Sum of electronic and thermal Enthalpies=            -652.549218
 Sum of electronic and thermal Free Energies=         -652.606871

                     E (Thermal)             CV                S
                      KCal/Mol        Cal/Mol-Kelvin    Cal/Mol-Kelvin
 Total                  189.296             59.127            121.340
 Electronic               0.000              0.000              0.000
 Translational            0.889              2.981             41.874
 Rotational               0.889              2.981             32.047
 Vibrational            187.518             53.165             47.419
 Vibration     1          0.595              1.978              4.814
 Vibration     2          0.599              1.965              3.972
 Vibration     3          0.601              1.958              3.705
 Vibration     4          0.604              1.950              3.471
 Vibration     5          0.608              1.937              3.177
 Vibration     6          0.615              1.912              2.784
 Vibration     7          0.629              1.869              2.346
 Vibration     8          0.640              1.834              2.097
 Vibration     9          0.651              1.797              1.890
 Vibration    10          0.665              1.755              1.699
 Vibration    11          0.672              1.734              1.617
 Vibration    12          0.686              1.691              1.471
 Vibration    13          0.711              1.620              1.270
 Vibration    14          0.723              1.586              1.191
 Vibration    15          0.733              1.559              1.132
 Vibration    16          0.751              1.511              1.036
 Vibration    17          0.761              1.482              0.983
 Vibration    18          0.785              1.420              0.881
 Vibration    19          0.793              1.401              0.853
 Vibration    20          0.824              1.325              0.748
 Vibration    21          0.842              1.281              0.694
 Vibration    22          0.882              1.190              0.594
 Vibration    23          0.916              1.117              0.523
 Vibration    24          0.951              1.046              0.462

 Optimization completed.
    -- Stationary point found.
 Normal termination of Gaussian 16 at Sun Mar 28 09:49:35 2021.
