 Gaussian 16, Revision A.03,
 Gaussian 16:  ES64L-G16RevA.03 25-Dec-2016

 ----------------------------------------------------------------------
 # wB97XD def2tzvp, opt=(ts, noeigen, calcfc, maxcycles=70, maxstep=5),
  freq=noraman, scrf=(iefpcm, solvent=water)
 ----------------------------------------------------------------------

 ------------------------
 2_iteration/TS-908-2.out
 ------------------------
 Symbolic Z-matrix:
 Charge =  0 Multiplicity = 1

 SCF Done:  E(RwB97XD) =  -3474.88716102     A.U. after   15 cycles
 SCF Done:  E(RwB97XD) =  -3474.88716107     A.U. after    7 cycles
 Optimization completed.
    -- Stationary point found.
 Normal termination of Gaussian 16 at Sun Feb 28 18:35:36 2021.

 ---------------------------------------------------------------------
 #N Geom=AllCheck Guess=TCheck SCRF=Check GenChk RwB97XD/def2TZVP Freq
 ---------------------------------------------------------------------

 Structure from the checkpoint file:  "/beegfs/scratch/user/q/tla25/Gau-84561.chk"
 ------------------------
 2_iteration/TS-908-2.out
 ------------------------
 Charge =  0 Multiplicity = 1

                         Standard orientation:
 ---------------------------------------------------------------------
 Center     Atomic      Atomic             Coordinates (Angstroms)
 Number     Number       Type             X           Y           Z
 ---------------------------------------------------------------------
      1          6           0       -0.167056   -0.024329   -0.298060
      2          6           0       -1.415139   -0.743439   -0.354711
      3          8           0       -1.547963   -1.924026   -0.637260
      4          6           0        1.077480   -0.626136   -0.457383
      5          6           0        0.953698   -1.498649    2.239418
      6          1           0        0.918796   -2.562624    2.017190
      7          1           0        1.251452   -1.358519    3.278171
      8          1           0       -0.040256   -1.071427    2.095654
      9          7           0        1.872736   -0.838418    1.322891
     10          1           0        2.064128    0.113589    1.613623
     11          1           0        2.758574   -1.324257    1.243936
     12         17           0        2.392545    0.396846   -1.104272
     13          6           0        1.226279   -2.035903   -0.959137
     14          1           0        0.630878   -2.720926   -0.364189
     15          1           0        0.867202   -2.090741   -1.986458
     16          1           0        2.274005   -2.328156   -0.938444
     17         35           0       -0.214863    1.805861    0.247160
     18          8           0       -2.486849    0.027172   -0.081397
     19          6           0       -3.753368   -0.617010   -0.148044
     20          1           0       -4.485687    0.151046    0.086899
     21          1           0       -3.936929   -1.015409   -1.145878
     22          1           0       -3.817262   -1.427543    0.578058
 ---------------------------------------------------------------------

 SCF Done:  E(RwB97XD) =  -3474.88716107     A.U. after    1 cycles

 The electronic state is 1-A.
 Alpha  occ. eigenvalues -- -483.12431-101.70035 -62.67262 -56.46376 -56.46028
 Alpha  occ. eigenvalues --  -56.46017 -19.28718 -19.21897 -14.48647 -10.41168
 Alpha  occ. eigenvalues --  -10.41031 -10.32848 -10.31839 -10.31638 -10.28959
 Alpha  occ. eigenvalues --   -9.58641  -8.81376  -7.33275  -7.32433  -7.32383
 Alpha  occ. eigenvalues --   -6.63518  -6.62403  -6.62371  -2.73909  -2.73586
 Alpha  occ. eigenvalues --   -2.73561  -2.72659  -2.72659  -1.20404  -1.10685
 Alpha  occ. eigenvalues --   -1.04577  -0.98335  -0.91268  -0.86028  -0.82964
 Alpha  occ. eigenvalues --   -0.79120  -0.78279  -0.69891  -0.63709  -0.63395
 Alpha  occ. eigenvalues --   -0.58886  -0.58023  -0.57045  -0.56663  -0.55344
 Alpha  occ. eigenvalues --   -0.53838  -0.51243  -0.50189  -0.48914  -0.47857
 Alpha  occ. eigenvalues --   -0.47312  -0.46192  -0.44977  -0.43995  -0.41062
 Alpha  occ. eigenvalues --   -0.39558  -0.38752  -0.38388  -0.37414  -0.34582
 Alpha  occ. eigenvalues --   -0.28400
 Alpha virt. eigenvalues --    0.03755   0.06507   0.10220   0.11009   0.13050
 Alpha virt. eigenvalues --    0.14372   0.14892   0.15432   0.16813   0.17018
 Alpha virt. eigenvalues --    0.19178   0.19336   0.20133   0.20680   0.21064

 Mulliken charges:
               1
     1  C   -0.292770
     2  C    0.466790
     3  O   -0.492462
     4  C    0.149040
     5  C   -0.303418
     6  H    0.160743
     7  H    0.161380
     8  H    0.154631
     9  N   -0.345943
    10  H    0.283808
    11  H    0.291758
    12  Cl  -0.105656
    13  C   -0.358339
    14  H    0.152484
    15  H    0.153437
    16  H    0.147716
    17  Br  -0.130304
    18  O   -0.298028
    19  C   -0.193965
    20  H    0.140639
    21  H    0.129335
    22  H    0.129123
 Sum of Mulliken charges =  -0.00000

 Dipole moment (field-independent basis, Debye):
    X=              4.0737    Y=             -2.8922    Z=              4.7687  Tot=              6.9066
 Quadrupole moment (field-independent basis, Debye-Ang):
   XX=            -71.9976   YY=            -89.0620   ZZ=            -79.4532
   XY=             -8.2103   XZ=              6.5832   YZ=             -4.5662

  Exact polarizability: 196.626  -1.294 170.611   3.665   1.025 145.343
 Approx polarizability: 151.825   0.949 146.043   1.962   2.477 123.943

 ******    1 imaginary frequencies (negative Signs) ******

                      1                      2                      3
                      A                      A                      A
 Frequencies --   -353.4652                45.5934                56.4024
 Red. masses --      5.5852                 5.0574                 5.8734
 Frc consts  --      0.4111                 0.0062                 0.0110
 IR Inten    --    711.7503                 6.3012                 3.1355

                      4                      5                      6
                      A                      A                      A
 Frequencies --     73.5736               115.1858               142.8584
 Red. masses --      2.4245                 2.4177                 3.2375
 Frc consts  --      0.0077                 0.0189                 0.0389
 IR Inten    --      1.0368                 6.7454                 5.4605

                      7                      8                      9
                      A                      A                      A
 Frequencies --    152.7284               169.2122               172.4042
 Red. masses --      4.5267                 1.5216                 3.9669
 Frc consts  --      0.0622                 0.0257                 0.0695
 IR Inten    --      3.1095                 0.5623                 2.7914

                     10                     11                     12
                      A                      A                      A
 Frequencies --    185.0040               210.6742               284.5910
 Red. masses --      1.2433                 4.7591                 1.8250
 Frc consts  --      0.0251                 0.1245                 0.0871
 IR Inten    --      2.2266                10.8935                 3.9814

                     13                     14                     15
                      A                      A                      A
 Frequencies --    289.4821               317.5804               321.1072
 Red. masses --      2.0976                 3.3843                 4.4193
 Frc consts  --      0.1036                 0.2011                 0.2685
 IR Inten    --     11.3248                 4.3847                20.0258

                     16                     17                     18
                      A                      A                      A
 Frequencies --    338.7942               365.2866               408.1776
 Red. masses --      4.4026                 2.7775                 6.9572
 Frc consts  --      0.2977                 0.2184                 0.6829
 IR Inten    --     23.5000                 7.3157                19.5806

                     19                     20                     21
                      A                      A                      A
 Frequencies --    469.4740               523.6206               650.2240
 Red. masses --      4.0169                 4.7742                 1.6541
 Frc consts  --      0.5216                 0.7712                 0.4120
 IR Inten    --     22.4004                86.3918                23.8980

                     22                     23                     24
                      A                      A                      A
 Frequencies --    708.9306               782.8012               794.2928
 Red. masses --      3.1448                 9.1943                 5.3109
 Frc consts  --      0.9312                 3.3195                 1.9742
 IR Inten    --    142.4287                42.3245                66.0654

                     25                     26                     27
                      A                      A                      A
 Frequencies --    969.0146               997.0109              1012.6927
 Red. masses --      5.6697                 1.2609                 1.9317
 Frc consts  --      3.1367                 0.7385                 1.1672
 IR Inten    --     53.4113                32.0322               138.2629

                     28                     29                     30
                      A                      A                      A
 Frequencies --   1032.7230              1062.9980              1086.3817
 Red. masses --      1.2057                 1.4996                 3.9393
 Frc consts  --      0.7576                 0.9984                 2.7393
 IR Inten    --     32.6986               104.2552                 3.8914

                     31                     32                     33
                      A                      A                      A
 Frequencies --   1107.7542              1146.2181              1181.9006
 Red. masses --      2.4496                 4.6424                 1.2817
 Frc consts  --      1.7710                 3.5936                 1.0548
 IR Inten    --    164.9900                37.5923                 1.8934

                     34                     35                     36
                      A                      A                      A
 Frequencies --   1216.0522              1217.5828              1296.7691
 Red. masses --      1.4275                 1.5756                 7.0306
 Frc consts  --      1.2438                 1.3762                 6.9657
 IR Inten    --     25.9673               158.2654               958.0454

                     37                     38                     39
                      A                      A                      A
 Frequencies --   1341.3596              1415.1145              1434.5461
 Red. masses --      1.3277                 1.5449                 2.1369
 Frc consts  --      1.4074                 1.8228                 2.5910
 IR Inten    --      9.5884               380.1944               403.3466

                     40                     41                     42
                      A                      A                      A
 Frequencies --   1463.0782              1470.3983              1479.4330
 Red. masses --      1.1837                 1.0745                 1.1918
 Frc consts  --      1.4929                 1.3688                 1.5369
 IR Inten    --     26.4983                 6.1479               107.9402

                     43                     44                     45
                      A                      A                      A
 Frequencies --   1481.6101              1490.0507              1495.0152
 Red. masses --      1.0451                 1.1384                 1.0630
 Frc consts  --      1.3517                 1.4892                 1.3998
 IR Inten    --     13.5322                27.5667                28.3443

                     46                     47                     48
                      A                      A                      A
 Frequencies --   1497.6046              1507.5155              1644.1650
 Red. masses --      1.1216                 1.0330                 1.0894
 Frc consts  --      1.4821                 1.3832                 1.7352
 IR Inten    --     46.9725                17.2129                64.1547

                     49                     50                     51
                      A                      A                      A
 Frequencies --   1700.3307              3063.6909              3065.7632
 Red. masses --     10.6714                 1.0309                 1.0342
 Frc consts  --     18.1776                 5.7011                 5.7268
 IR Inten    --    596.4649                56.4598                32.1421

                     52                     53                     54
                      A                      A                      A
 Frequencies --   3084.9333              3139.3806              3140.1598
 Red. masses --      1.0369                 1.1036                 1.1069
 Frc consts  --      5.8142                 6.4082                 6.4305
 IR Inten    --     11.9939                10.3583                36.9627

                     55                     56                     57
                      A                      A                      A
 Frequencies --   3160.1422              3169.6952              3174.9276
 Red. masses --      1.1028                 1.1051                 1.1053
 Frc consts  --      6.4887                 6.5415                 6.5646
 IR Inten    --     13.3427                13.6298                23.9874

                     58                     59                     60
                      A                      A                      A
 Frequencies --   3195.2692              3525.5368              3608.7915
 Red. masses --      1.1018                 1.0507                 1.0965
 Frc consts  --      6.6279                 7.6946                 8.4136
 IR Inten    --      2.7442                53.8075                54.4196

 - Thermochemistry -
 -------------------
 Temperature   298.150 Kelvin.  Pressure   1.00000 Atm.
 Atom     1 has atomic number  6 and mass  12.00000

 Molecular mass:   242.96617 amu.
 Principal axes and moments of inertia in atomic units:
                           1         2         3
     Eigenvalues --  2274.723053152.357434109.31011
           X            0.99951  -0.01672   0.02641
           Y            0.01770   0.99915  -0.03736
           Z           -0.02576   0.03781   0.99895
 This molecule is an asymmetric top.
 Rotational symmetry number  1.
 Warning -- assumption of classical behavior for rotation
           may cause significant error
 Rotational temperatures (Kelvin)      0.03808     0.02748     0.02108
 Rotational constants (GHZ):           0.79339     0.57251     0.43918
    1 imaginary frequencies ignored.
 Zero-point vibrational energy     452509.1 (Joules/Mol)
                                  108.15226 (Kcal/Mol)
 Warning -- explicit consideration of  19 degrees of freedom as
           vibrations may cause significant error
 Vibrational temperatures:     65.60    81.15   105.86   165.73   205.54
          (Kelvin)            219.74   243.46   248.05   266.18   303.11
                              409.46   416.50   456.93   462.00   487.45
                              525.57   587.28   675.47   753.37   935.53
                             1019.99  1126.28  1142.81  1394.20  1434.48
                             1457.04  1485.86  1529.42  1563.06  1593.81
                             1649.15  1700.49  1749.63  1751.83  1865.76
                             1929.92  2036.03  2063.99  2105.04  2115.58
                             2128.57  2131.71  2143.85  2150.99  2154.72
                             2168.98  2365.59  2446.40  4407.97  4410.95
                             4438.53  4516.87  4517.99  4546.74  4560.48
                             4568.01  4597.28  5072.46  5192.25

 Zero-point correction=                           0.172352 (Hartree/Particle)
 Thermal correction to Energy=                    0.185906
 Thermal correction to Enthalpy=                  0.186850
 Thermal correction to Gibbs Free Energy=         0.130906
 Sum of electronic and zero-point Energies=          -3474.714809
 Sum of electronic and thermal Energies=             -3474.701255
 Sum of electronic and thermal Enthalpies=           -3474.700311
 Sum of electronic and thermal Free Energies=        -3474.756255

                     E (Thermal)             CV                S
                      KCal/Mol        Cal/Mol-Kelvin    Cal/Mol-Kelvin
 Total                  116.658             46.341            117.745
 Electronic               0.000              0.000              0.000
 Translational            0.889              2.981             42.364
 Rotational               0.889              2.981             31.755
 Vibrational            114.880             40.379             43.625
 Vibration     1          0.595              1.979              5.000
 Vibration     2          0.596              1.975              4.579
 Vibration     3          0.599              1.966              4.055
 Vibration     4          0.608              1.937              3.180
 Vibration     5          0.616              1.910              2.765
 Vibration     6          0.619              1.900              2.638
 Vibration     7          0.625              1.880              2.444
 Vibration     8          0.626              1.876              2.409
 Vibration     9          0.631              1.860              2.277
 Vibration    10          0.643              1.825              2.038
 Vibration    11          0.683              1.702              1.506
 Vibration    12          0.686              1.693              1.477
 Vibration    13          0.704              1.640              1.323
 Vibration    14          0.707              1.633              1.304
 Vibration    15          0.719              1.598              1.218
 Vibration    16          0.739              1.544              1.100
 Vibration    17          0.773              1.452              0.933
 Vibration    18          0.827              1.318              0.739
 Vibration    19          0.879              1.198              0.602

 Optimization completed.
    -- Stationary point found.
 Normal termination of Gaussian 16 at Sun Feb 28 18:58:49 2021.
