 Gaussian 16, Revision A.03,
 Gaussian 16:  ES64L-G16RevA.03 25-Dec-2016

 ----------------------------------------------------------------------
 # wB97XD def2tzvp, opt=(ts, noeigen, calcfc, maxcycles=70, maxstep=5),
  freq=noraman, scrf=(iefpcm, solvent=water)
 ----------------------------------------------------------------------

 ------------------------
 2_iteration/TS-992-2.out
 ------------------------
 Symbolic Z-matrix:
 Charge =  0 Multiplicity = 1

 SCF Done:  E(RwB97XD) =  -4011.65618986     A.U. after   15 cycles
 SCF Done:  E(RwB97XD) =  -4011.65618986     A.U. after    7 cycles
 Optimization completed.
    -- Stationary point found.
 Normal termination of Gaussian 16 at Sun Feb 28 21:01:14 2021.

 ---------------------------------------------------------------------
 #N Geom=AllCheck Guess=TCheck SCRF=Check GenChk RwB97XD/def2TZVP Freq
 ---------------------------------------------------------------------

 Structure from the checkpoint file:  "/beegfs/scratch/user/q/tla25/Gau-24288.chk"
 ------------------------
 2_iteration/TS-992-2.out
 ------------------------
 Charge =  0 Multiplicity = 1

                         Standard orientation:
 ---------------------------------------------------------------------
 Center     Atomic      Atomic             Coordinates (Angstroms)
 Number     Number       Type             X           Y           Z
 ---------------------------------------------------------------------
      1          6           0       -0.726206   -0.466831   -0.176743
      2          6           0        0.426308   -1.345077   -0.151965
      3          8           0        0.319628   -2.564307   -0.206391
      4          6           0       -0.749286    0.896539   -0.458193
      5          6           0       -1.106818    1.454234    2.308965
      6          1           0       -0.865197    0.394036    2.388638
      7          1           0       -0.795985    1.960115    3.222735
      8          1           0       -2.182171    1.561310    2.183457
      9          7           0       -0.430403    2.002040    1.141514
     10          1           0       -0.727905    2.948854    0.932764
     11          1           0        0.577476    2.006840    1.256763
     12         17           0       -2.280257    1.628872   -0.908239
     13         17           0        0.541823    1.596048   -1.429816
     14         35           0       -2.371455   -1.362557    0.179211
     15          6           0        1.808702   -0.779509    0.006936
     16          6           0        2.769557   -1.013529   -0.970147
     17          6           0        4.060783   -0.542983   -0.800339
     18          6           0        4.409020    0.139103    0.359062
     19          6           0        3.463071    0.339225    1.352772
     20          6           0        2.164616   -0.116942    1.174811
     21          1           0        2.496536   -1.547371   -1.871738
     22          1           0        4.800208   -0.709753   -1.573249
     23          1           0        5.419577    0.503937    0.490714
     24          1           0        3.733876    0.847804    2.269064
     25          1           0        1.435181    0.014896    1.964984
 ---------------------------------------------------------------------

 SCF Done:  E(RwB97XD) =  -4011.65618986     A.U. after    1 cycles

 The electronic state is 1-A.
 Alpha  occ. eigenvalues -- -483.12910-101.72029-101.71987 -62.67736 -56.46863
 Alpha  occ. eigenvalues --  -56.46495 -56.46484 -19.23144 -14.49512 -10.46774
 Alpha  occ. eigenvalues --  -10.38255 -10.33280 -10.32325 -10.30716 -10.30042
 Alpha  occ. eigenvalues --  -10.29722 -10.29721 -10.29613 -10.29545  -9.60614
 Alpha  occ. eigenvalues --   -9.60574  -8.81847  -7.35306  -7.35269  -7.34373
 Alpha  occ. eigenvalues --   -7.34325  -7.34322  -7.34292  -6.64030  -6.62851
 Alpha  occ. eigenvalues --   -6.62820  -2.74414  -2.74072  -2.74048  -2.73095
 Alpha  occ. eigenvalues --   -2.73094  -1.14283  -1.06242  -1.01835  -0.97453
 Alpha  occ. eigenvalues --   -0.94610  -0.91898  -0.87305  -0.85916  -0.82404
 Alpha  occ. eigenvalues --   -0.79661  -0.74735  -0.71372  -0.69905  -0.64579
 Alpha  occ. eigenvalues --   -0.64076  -0.61153  -0.58917  -0.58095  -0.56846
 Alpha  occ. eigenvalues --   -0.56088  -0.55544  -0.53738  -0.51948  -0.51772
 Alpha  occ. eigenvalues --   -0.50072  -0.49523  -0.48669  -0.47069  -0.46804
 Alpha  occ. eigenvalues --   -0.44907  -0.44032  -0.43425  -0.42563  -0.40827
 Alpha  occ. eigenvalues --   -0.39920  -0.39441  -0.36712  -0.35334  -0.34531
 Alpha  occ. eigenvalues --   -0.32845  -0.29525
 Alpha virt. eigenvalues --    0.00367   0.03507   0.04292   0.04999   0.06334
 Alpha virt. eigenvalues --    0.10371   0.12634   0.13332   0.13943   0.14281
 Alpha virt. eigenvalues --    0.15247   0.16246   0.17222   0.18093   0.18605

 Mulliken charges:
               1
     1  C   -0.282642
     2  C    0.262365
     3  O   -0.431670
     4  C    0.199423
     5  C   -0.309971
     6  H    0.160947
     7  H    0.170539
     8  H    0.166841
     9  N   -0.346949
    10  H    0.294998
    11  H    0.284745
    12  Cl  -0.028919
    13  Cl  -0.031894
    14  Br  -0.102479
    15  C    0.138786
    16  C   -0.213124
    17  C   -0.134468
    18  C   -0.145116
    19  C   -0.132919
    20  C   -0.295744
    21  H    0.144733
    22  H    0.147386
    23  H    0.148211
    24  H    0.146381
    25  H    0.190540
 Sum of Mulliken charges =  -0.00000

 Dipole moment (field-independent basis, Debye):
    X=              2.3814    Y=              9.8512    Z=              4.3334  Tot=             11.0225
 Quadrupole moment (field-independent basis, Debye-Ang):
   XX=           -105.3440   YY=           -118.9792   ZZ=           -103.4191
   XY=             -0.9991   XZ=             -3.4519   YZ=              9.8427

  Exact polarizability: 281.692   9.027 248.576 -10.328  21.763 213.799
 Approx polarizability: 222.425  10.046 209.827  -8.445  16.864 187.447

 ******    1 imaginary frequencies (negative Signs) ******

                      1                      2                      3
                      A                      A                      A
 Frequencies --   -359.4198                35.0657                47.0181
 Red. masses --      5.8993                 7.0647                 6.0947
 Frc consts  --      0.4490                 0.0051                 0.0079
 IR Inten    --    857.2269                 2.5897                 3.9887

                      4                      5                      6
                      A                      A                      A
 Frequencies --     68.5600                75.1637                86.8580
 Red. masses --      5.7841                 4.0217                 4.0251
 Frc consts  --      0.0160                 0.0134                 0.0179
 IR Inten    --      0.0575                 3.1801                 1.6071

                      7                      8                      9
                      A                      A                      A
 Frequencies --    137.3097               163.9099               173.7621
 Red. masses --      4.3094                 6.4258                20.6118
 Frc consts  --      0.0479                 0.1017                 0.3667
 IR Inten    --      5.4698                 3.4306                 0.2221

                     10                     11                     12
                      A                      A                      A
 Frequencies --    178.2883               195.3850               224.5799
 Red. masses --      1.3198                 5.7075                 3.8039
 Frc consts  --      0.0247                 0.1284                 0.1130
 IR Inten    --      4.6315                 4.1715                 4.3764

                     13                     14                     15
                      A                      A                      A
 Frequencies --    245.0265               258.3387               276.4206
 Red. masses --      5.7690                 4.6793                 9.3877
 Frc consts  --      0.2041                 0.1840                 0.4226
 IR Inten    --      2.2183                12.6085                 6.7638

                     16                     17                     18
                      A                      A                      A
 Frequencies --    298.7456               341.7451               379.7432
 Red. masses --      4.5143                 9.7009                 5.9918
 Frc consts  --      0.2374                 0.6675                 0.5091
 IR Inten    --     14.7918                13.9291                16.8778

                     19                     20                     21
                      A                      A                      A
 Frequencies --    422.1175               438.1676               513.5427
 Red. masses --      2.9737                 9.7771                 7.7638
 Frc consts  --      0.3122                 1.1060                 1.2064
 IR Inten    --      1.6678                 6.5347               154.8769

                     22                     23                     24
                      A                      A                      A
 Frequencies --    559.7224               634.8003               646.4435
 Red. masses --      4.6395                 6.4112                 1.8293
 Frc consts  --      0.8564                 1.5222                 0.4504
 IR Inten    --      6.1115                 0.7500                 4.4895

                     25                     26                     27
                      A                      A                      A
 Frequencies --    664.0335               731.1347               755.6869
 Red. masses --      2.9385                 1.7039                 9.0263
 Frc consts  --      0.7634                 0.5366                 3.0370
 IR Inten    --    131.3430                86.2363               129.1340

                     28                     29                     30
                      A                      A                      A
 Frequencies --    763.0484               817.1060               824.9157
 Red. masses --      3.6927                 3.1590                 6.6051
 Frc consts  --      1.2668                 1.2427                 2.6482
 IR Inten    --     44.6335                90.4028               151.9542

                     31                     32                     33
                      A                      A                      A
 Frequencies --    884.1297               890.9244               967.0659
 Red. masses --      1.4775                 3.3359                 1.4360
 Frc consts  --      0.6805                 1.5601                 0.7912
 IR Inten    --     13.4886                39.5308                18.3279

                     34                     35                     36
                      A                      A                      A
 Frequencies --   1000.4815              1016.6115              1026.8715
 Red. masses --      1.1077                 1.5030                 3.2057
 Frc consts  --      0.6532                 0.9152                 1.9916
 IR Inten    --     19.5620                 3.2695                12.0908

                     37                     38                     39
                      A                      A                      A
 Frequencies --   1032.9101              1034.4722              1058.4623
 Red. masses --      1.1801                 1.3520                 2.3370
 Frc consts  --      0.7418                 0.8525                 1.5426
 IR Inten    --     75.0639                 5.9166                13.1704

                     40                     41                     42
                      A                      A                      A
 Frequencies --   1081.5754              1111.6030              1144.8249
 Red. masses --      5.0894                 1.5528                 4.0943
 Frc consts  --      3.5077                 1.1305                 3.1616
 IR Inten    --     38.8110                22.1245                82.2134

                     43                     44                     45
                      A                      A                      A
 Frequencies --   1185.3093              1206.0777              1218.6850
 Red. masses --      1.1420                 1.1233                 1.4061
 Frc consts  --      0.9453                 0.9627                 1.2304
 IR Inten    --      0.1957                 4.7305                19.1143

                     46                     47                     48
                      A                      A                      A
 Frequencies --   1311.4460              1328.6142              1337.5949
 Red. masses --      4.6431                 5.3099                 1.3408
 Frc consts  --      4.7050                 5.5225                 1.4134
 IR Inten    --    356.4230               123.1346                14.1484

                     49                     50                     51
                      A                      A                      A
 Frequencies --   1358.7311              1373.3367              1462.7523
 Red. masses --      1.4793                 8.5893                 1.2060
 Frc consts  --      1.6091                 9.5447                 1.5204
 IR Inten    --      4.3311              1255.7819                13.5582

                     52                     53                     54
                      A                      A                      A
 Frequencies --   1490.1499              1490.7022              1502.2558
 Red. masses --      2.0456                 1.0822                 1.0318
 Frc consts  --      2.6762                 1.4169                 1.3719
 IR Inten    --      9.8916                26.7830                15.6239

                     55                     56                     57
                      A                      A                      A
 Frequencies --   1541.3369              1642.6095              1650.7565
 Red. masses --      2.3232                 1.0898                 5.9046
 Frc consts  --      3.2519                 1.7325                 9.4799
 IR Inten    --      4.7566                60.5082                15.6378

                     58                     59                     60
                      A                      A                      A
 Frequencies --   1674.5441              1674.9829              3068.2139
 Red. masses --      5.9376                12.3969                 1.0333
 Frc consts  --      9.8096                20.4920                 5.7312
 IR Inten    --     15.1287               583.2323                23.1227

                     61                     62                     63
                      A                      A                      A
 Frequencies --   3144.8450              3168.8475              3195.0622
 Red. masses --      1.1050                 1.1052                 1.0867
 Frc consts  --      6.4388                 6.5389                 6.5363
 IR Inten    --     10.7979                 9.7195                 4.2423

                     64                     65                     66
                      A                      A                      A
 Frequencies --   3200.1344              3207.8661              3216.3641
 Red. masses --      1.0878                 1.0913                 1.0953
 Frc consts  --      6.5636                 6.6166                 6.6758
 IR Inten    --      0.6227                 8.2582                30.8853

                     67                     68                     69
                      A                      A                      A
 Frequencies --   3225.1473              3515.2388              3599.9290
 Red. masses --      1.0990                 1.0507                 1.0966
 Frc consts  --      6.7349                 7.6495                 8.3734
 IR Inten    --     15.6649                65.3244                86.5638

 - Thermochemistry -
 -------------------
 Temperature   298.150 Kelvin.  Pressure   1.00000 Atm.
 Atom     1 has atomic number  6 and mass  12.00000

 Molecular mass:   308.93228 amu.
 Principal axes and moments of inertia in atomic units:
                           1         2         3
     Eigenvalues --  3147.986866411.814647533.17171
           X            0.99940  -0.03413  -0.00529
           Y            0.03447   0.99524   0.09119
           Z            0.00216  -0.09131   0.99582
 This molecule is an asymmetric top.
 Rotational symmetry number  1.
 Warning -- assumption of classical behavior for rotation
           may cause significant error
 Rotational temperatures (Kelvin)      0.02751     0.01351     0.01150
 Rotational constants (GHZ):           0.57330     0.28147     0.23957
    1 imaginary frequencies ignored.
 Zero-point vibrational energy     479691.2 (Joules/Mol)
                                  114.64895 (Kcal/Mol)
 Warning -- explicit consideration of  21 degrees of freedom as
           vibrations may cause significant error
 Vibrational temperatures:     50.45    67.65    98.64   108.14   124.97
          (Kelvin)            197.56   235.83   250.00   256.52   281.12
                              323.12   352.54   371.69   397.71   429.83
                              491.69   546.37   607.33   630.43   738.87
                              805.32   913.34   930.09   955.40  1051.94
                             1087.26  1097.86  1175.63  1186.87  1272.07
                             1281.84  1391.39  1439.47  1462.68  1477.44
                             1486.13  1488.37  1522.89  1556.15  1599.35
                             1647.15  1705.40  1735.28  1753.42  1886.88
                             1911.58  1924.50  1954.91  1975.93  2104.57
                             2143.99  2144.79  2161.41  2217.64  2363.35
                             2375.07  2409.30  2409.93  4414.48  4524.73
                             4559.26  4596.98  4604.28  4615.40  4627.63
                             4640.27  5057.64  5179.49

 Zero-point correction=                           0.182705 (Hartree/Particle)
 Thermal correction to Energy=                    0.198052
 Thermal correction to Enthalpy=                  0.198996
 Thermal correction to Gibbs Free Energy=         0.138066
 Sum of electronic and zero-point Energies=          -4011.473485
 Sum of electronic and thermal Energies=             -4011.458138
 Sum of electronic and thermal Enthalpies=           -4011.457194
 Sum of electronic and thermal Free Energies=        -4011.518124

                     E (Thermal)             CV                S
                      KCal/Mol        Cal/Mol-Kelvin    Cal/Mol-Kelvin
 Total                  124.279             54.565            128.238
 Electronic               0.000              0.000              0.000
 Translational            0.889              2.981             43.080
 Rotational               0.889              2.981             33.386
 Vibrational            122.502             48.603             51.772
 Vibration     1          0.594              1.982              5.520
 Vibration     2          0.595              1.979              4.939
 Vibration     3          0.598              1.969              4.194
 Vibration     4          0.599              1.966              4.013
 Vibration     5          0.601              1.958              3.730
 Vibration     6          0.614              1.916              2.841
 Vibration     7          0.623              1.887              2.504
 Vibration     8          0.627              1.875              2.394
 Vibration     9          0.629              1.869              2.346
 Vibration    10          0.636              1.846              2.176
 Vibration    11          0.649              1.804              1.922
 Vibration    12          0.660              1.771              1.766
 Vibration    13          0.667              1.749              1.673
 Vibration    14          0.678              1.717              1.556
 Vibration    15          0.692              1.676              1.424
 Vibration    16          0.721              1.592              1.204
 Vibration    17          0.750              1.513              1.040
 Vibration    18          0.784              1.422              0.885
 Vibration    19          0.798              1.387              0.832
 Vibration    20          0.869              1.220              0.625
 Vibration    21          0.915              1.118              0.524

 Optimization completed.
    -- Stationary point found.
 Normal termination of Gaussian 16 at Sun Feb 28 21:50:27 2021.
