 Gaussian 16, Revision A.03,
 Gaussian 16:  ES64L-G16RevA.03 25-Dec-2016

 ----------------------------------------------------------------------
 # wB97XD def2tzvp, opt=(ts, noeigen, calcfc, maxcycles=70, maxstep=3),
  freq=noraman, scrf=(iefpcm, solvent=water)
 ----------------------------------------------------------------------

 ------------------------
 3_iteration/TS-967-3.out
 ------------------------
 Symbolic Z-matrix:
 Charge =  0 Multiplicity = 1

 SCF Done:  E(RwB97XD) =  -1724.47543919     A.U. after   15 cycles
 SCF Done:  E(RwB97XD) =  -1724.47544005     A.U. after   11 cycles
 SCF Done:  E(RwB97XD) =  -1724.47544094     A.U. after   10 cycles
 SCF Done:  E(RwB97XD) =  -1724.47544108     A.U. after    7 cycles
 Optimization completed on the basis of negligible forces.
    -- Stationary point found.
 Normal termination of Gaussian 16 at Mon Mar  1 09:39:20 2021.

 ---------------------------------------------------------------------
 #N Geom=AllCheck Guess=TCheck SCRF=Check GenChk RwB97XD/def2TZVP Freq
 ---------------------------------------------------------------------

 Structure from the checkpoint file:  "/beegfs/scratch/user/q/tla25/Gau-51108.chk"
 ------------------------
 3_iteration/TS-967-3.out
 ------------------------
 Charge =  0 Multiplicity = 1

                         Standard orientation:
 ---------------------------------------------------------------------
 Center     Atomic      Atomic             Coordinates (Angstroms)
 Number     Number       Type             X           Y           Z
 ---------------------------------------------------------------------
      1          6           0       -0.835438    0.049023   -0.209317
      2          6           0        0.454003   -0.633717   -0.198254
      3          8           0        0.528484   -1.859639   -0.157399
      4          6           0       -1.009587    1.418774   -0.111995
      5          6           0       -0.710245    1.277192    2.653861
      6          1           0       -0.280597    1.646945    3.583776
      7          1           0       -1.794835    1.250940    2.738663
      8          1           0       -0.337847    0.272015    2.462610
      9          7           0       -0.336003    2.127263    1.532894
     10          1           0       -0.694004    3.072124    1.622321
     11          1           0        0.672065    2.177961    1.433916
     12         17           0       -2.656638    2.012575   -0.023558
     13         17           0       -0.063819    2.572837   -1.157406
     14          6           0       -2.026566   -0.856182   -0.209110
     15          6           0       -2.498704   -1.458664    0.953926
     16          6           0       -3.598046   -2.303807    0.924127
     17          6           0       -4.244970   -2.564146   -0.275993
     18          6           0       -3.781049   -1.976778   -1.444073
     19          6           0       -2.680245   -1.132891   -1.407509
     20          1           0       -1.999432   -1.265709    1.894791
     21          1           0       -3.950819   -2.759731    1.841023
     22          1           0       -5.104460   -3.222294   -0.300327
     23          1           0       -4.276330   -2.175579   -2.386498
     24          1           0       -2.320272   -0.674370   -2.320910
     25          7           0        1.599468    0.144140   -0.179500
     26          6           0        2.922250   -0.320198   -0.124379
     27          6           0        3.296373   -1.460424    0.585119
     28          6           0        4.631409   -1.831196    0.639440
     29          6           0        5.609835   -1.078444    0.006028
     30          6           0        5.238095    0.063181   -0.689586
     31          6           0        3.906925    0.438150   -0.758367
     32          1           0        1.505677    1.076118   -0.548565
     33          1           0        2.545007   -2.050026    1.086137
     34          1           0        4.907550   -2.720340    1.192792
     35          1           0        6.649153   -1.375953    0.056211
     36          1           0        5.986530    0.666113   -1.188352
     37          1           0        3.624015    1.327837   -1.309271
 ---------------------------------------------------------------------

 SCF Done:  E(RwB97XD) =  -1724.47544108     A.U. after    1 cycles

 The electronic state is 1-A.
 Alpha  occ. eigenvalues -- -101.71735-101.71228 -19.20942 -14.50320 -14.46235
 Alpha  occ. eigenvalues --  -10.45807 -10.39188 -10.33651 -10.32427 -10.30041
 Alpha  occ. eigenvalues --  -10.29094 -10.28979 -10.28936 -10.28765 -10.28728
 Alpha  occ. eigenvalues --  -10.28680 -10.28525 -10.28514 -10.28486 -10.28421
 Alpha  occ. eigenvalues --  -10.28110  -9.60316  -9.59836  -7.34997  -7.34463
 Alpha  occ. eigenvalues --   -7.34081  -7.34038  -7.33625  -7.33584  -1.14044
 Alpha  occ. eigenvalues --   -1.06542  -1.03957  -1.00997  -0.96362  -0.95612
 Alpha  occ. eigenvalues --   -0.93677  -0.89033  -0.85247  -0.84954  -0.84757
 Alpha  occ. eigenvalues --   -0.82000  -0.79951  -0.73674  -0.71798  -0.70995
 Alpha  occ. eigenvalues --   -0.70090  -0.67924  -0.65601  -0.64561  -0.63069
 Alpha  occ. eigenvalues --   -0.60885  -0.60000  -0.59000  -0.57914  -0.56322
 Alpha  occ. eigenvalues --   -0.55501  -0.54274  -0.54044  -0.53255  -0.52514
 Alpha  occ. eigenvalues --   -0.51692  -0.51221  -0.50597  -0.50422  -0.49549
 Alpha  occ. eigenvalues --   -0.48880  -0.48317  -0.46610  -0.46118  -0.44876
 Alpha  occ. eigenvalues --   -0.43702  -0.43003  -0.42662  -0.42445  -0.42081
 Alpha  occ. eigenvalues --   -0.40176  -0.39783  -0.39109  -0.35053  -0.33620
 Alpha  occ. eigenvalues --   -0.33392  -0.32695  -0.30843  -0.28319
 Alpha virt. eigenvalues --    0.02463   0.03885   0.05343   0.05568   0.06408
 Alpha virt. eigenvalues --    0.06929   0.08751   0.10221   0.12767   0.13297
 Alpha virt. eigenvalues --    0.14167   0.14723   0.15772   0.15990   0.16437

 Mulliken charges:
               1
     1  C   -0.262677
     2  C    0.354597
     3  O   -0.502906
     4  C    0.085537
     5  C   -0.313292
     6  H    0.174705
     7  H    0.168517
     8  H    0.160100
     9  N   -0.298659
    10  H    0.299565
    11  H    0.288261
    12  Cl  -0.036857
    13  Cl  -0.098671
    14  C    0.242685
    15  C   -0.230455
    16  C   -0.167997
    17  C   -0.129891
    18  C   -0.159512
    19  C   -0.229950
    20  H    0.144132
    21  H    0.138437
    22  H    0.142421
    23  H    0.138889
    24  H    0.136018
    25  N   -0.294075
    26  C    0.285741
    27  C   -0.298235
    28  C   -0.095466
    29  C   -0.189744
    30  C   -0.101064
    31  C   -0.292073
    32  H    0.224156
    33  H    0.146794
    34  H    0.142437
    35  H    0.141507
    36  H    0.143478
    37  H    0.143548
 Sum of Mulliken charges =  -0.00000

 Dipole moment (field-independent basis, Debye):
    X=              0.1135    Y=              8.1104    Z=              5.3664  Tot=              9.7258
 Quadrupole moment (field-independent basis, Debye-Ang):
   XX=           -130.4354   YY=           -132.9270   ZZ=           -122.9400
   XY=              6.7577   XZ=             -2.8996   YZ=              4.8525

  Exact polarizability: 380.822  11.413 326.093  -2.873 -21.846 281.080
 Approx polarizability: 289.140  10.851 270.293  -2.107 -20.716 243.206

 ******    1 imaginary frequencies (negative Signs) ******

                      1                      2                      3
                      A                      A                      A
 Frequencies --   -383.2044                23.8969                27.8564
 Red. masses --      5.6516                 4.0102                 4.4441
 Frc consts  --      0.4890                 0.0013                 0.0020
 IR Inten    --    659.8883                 0.5966                 0.6890

                      4                      5                      6
                      A                      A                      A
 Frequencies --     36.1650                51.8930                69.2516
 Red. masses --      4.4125                 5.9801                 6.0424
 Frc consts  --      0.0034                 0.0095                 0.0171
 IR Inten    --      1.5901                 3.0555                 8.3672

                      7                      8                      9
                      A                      A                      A
 Frequencies --     81.5703                88.1785               103.4038
 Red. masses --      3.8691                 5.0986                 7.6134
 Frc consts  --      0.0152                 0.0234                 0.0480
 IR Inten    --      1.0903                 0.7400                 2.6165

                     10                     11                     12
                      A                      A                      A
 Frequencies --    131.7668               166.0648               177.1937
 Red. masses --      3.7410                 2.7904                 2.7241
 Frc consts  --      0.0383                 0.0453                 0.0504
 IR Inten    --     16.0332                 0.9245                 7.4432

                     13                     14                     15
                      A                      A                      A
 Frequencies --    189.6035               218.4829               233.3892
 Red. masses --      2.0706                 6.5832                 4.1432
 Frc consts  --      0.0439                 0.1852                 0.1330
 IR Inten    --      5.3642                 0.6414                 7.3015

                     16                     17                     18
                      A                      A                      A
 Frequencies --    248.0594               262.1862               270.6548
 Red. masses --      5.0500                 4.4137                 5.8172
 Frc consts  --      0.1831                 0.1788                 0.2511
 IR Inten    --      0.8555                 6.8128                 5.3190

                     19                     20                     21
                      A                      A                      A
 Frequencies --    300.4034               339.1770               368.2618
 Red. masses --      5.6527                 8.8636                 6.4947
 Frc consts  --      0.3005                 0.6008                 0.5189
 IR Inten    --     27.1537                24.0158                12.1317

                     22                     23                     24
                      A                      A                      A
 Frequencies --    390.1858               421.8910               424.2434
 Red. masses --      5.8768                 5.2239                 2.8871
 Frc consts  --      0.5272                 0.5478                 0.3062
 IR Inten    --     15.6530                13.0478                 0.3373

                     25                     26                     27
                      A                      A                      A
 Frequencies --    425.2283               520.7419               524.9023
 Red. masses --      3.7701                 3.7480                 2.8818
 Frc consts  --      0.4017                 0.5988                 0.4678
 IR Inten    --      6.0917                18.4959                16.2996

                     28                     29                     30
                      A                      A                      A
 Frequencies --    548.5276               572.7541               600.5127
 Red. masses --      7.6513                 2.2105                 2.0091
 Frc consts  --      1.3564                 0.4272                 0.4269
 IR Inten    --     82.8767                20.8508               166.1945

                     31                     32                     33
                      A                      A                      A
 Frequencies --    633.8513               639.9880               651.1313
 Red. masses --      5.9514                 6.0300                 5.4874
 Frc consts  --      1.4088                 1.4552                 1.3707
 IR Inten    --      8.7901                11.5343               106.8277

                     34                     35                     36
                      A                      A                      A
 Frequencies --    676.7418               718.7449               724.2566
 Red. masses --      1.5823                 1.9117                 2.0088
 Frc consts  --      0.4270                 0.5819                 0.6208
 IR Inten    --      9.0052                67.2794                27.7066

                     37                     38                     39
                      A                      A                      A
 Frequencies --    735.1303               778.1821               782.3035
 Red. masses --      2.2616                 3.2085                 2.7025
 Frc consts  --      0.7201                 1.1448                 0.9745
 IR Inten    --    250.3483               128.4766                 9.9204

                     40                     41                     42
                      A                      A                      A
 Frequencies --    793.5402               826.4878               860.6434
 Red. masses --      4.7429                 3.1177                 1.3107
 Frc consts  --      1.7597                 1.2548                 0.5720
 IR Inten    --    134.1731                24.6133                10.0939

                     43                     44                     45
                      A                      A                      A
 Frequencies --    866.2528               875.8854               921.8944
 Red. masses --      3.9606                 1.2501                 2.9993
 Frc consts  --      1.7511                 0.5650                 1.5019
 IR Inten    --     39.7446                 0.2319                47.5548

                     46                     47                     48
                      A                      A                      A
 Frequencies --    942.0779               956.7090              1002.6484
 Red. masses --      1.9072                 1.5000                 1.3562
 Frc consts  --      0.9973                 0.8089                 0.8033
 IR Inten    --      5.9969                 2.6378                 0.1029

                     49                     50                     51
                      A                      A                      A
 Frequencies --   1010.4364              1017.0031              1019.2912
 Red. masses --      1.3789                 1.2551                 1.3258
 Frc consts  --      0.8295                 0.7649                 0.8116
 IR Inten    --      0.4064                14.9898                 0.4283

                     52                     53                     54
                      A                      A                      A
 Frequencies --   1021.2993              1025.8583              1027.4492
 Red. masses --      4.0407                 2.6318                 1.8472
 Frc consts  --      2.4832                 1.6318                 1.1489
 IR Inten    --      3.4301                 8.8234                 2.5282

                     55                     56                     57
                      A                      A                      A
 Frequencies --   1030.2429              1051.6437              1061.9439
 Red. masses --      4.4079                 1.1738                 2.1436
 Frc consts  --      2.7565                 0.7649                 1.4243
 IR Inten    --     23.9029                71.8406                17.1523

                     58                     59                     60
                      A                      A                      A
 Frequencies --   1067.6746              1089.0351              1109.4907
 Red. masses --      1.9339                 4.8770                 1.5498
 Frc consts  --      1.2989                 3.4079                 1.1240
 IR Inten    --     16.3467                54.5806                12.6649

                     61                     62                     63
                      A                      A                      A
 Frequencies --   1121.1333              1181.5728              1182.1482
 Red. masses --      1.5343                 1.1342                 1.1284
 Frc consts  --      1.1363                 0.9329                 0.9291
 IR Inten    --      9.1801                 0.0980                 3.3979

                     64                     65                     66
                      A                      A                      A
 Frequencies --   1206.6917              1209.2392              1216.7913
 Red. masses --      1.1198                 1.1598                 3.0086
 Frc consts  --      0.9607                 0.9992                 2.6245
 IR Inten    --      0.7607                34.7038               147.4086

                     67                     68                     69
                      A                      A                      A
 Frequencies --   1235.3708              1272.7362              1308.1819
 Red. masses --      1.4426                 2.7616                 4.4789
 Frc consts  --      1.2971                 2.6356                 4.5160
 IR Inten    --     26.4611               704.4372                 0.8492

                     70                     71                     72
                      A                      A                      A
 Frequencies --   1315.0273              1338.8634              1348.0428
 Red. masses --      5.6775                 4.0879                 1.3513
 Frc consts  --      5.7846                 4.3174                 1.4468
 IR Inten    --    477.4172               318.7532                40.2781

                     73                     74                     75
                      A                      A                      A
 Frequencies --   1356.3675              1363.7859              1432.0471
 Red. masses --      1.4454                 1.5428                 3.5535
 Frc consts  --      1.5667                 1.6907                 4.2936
 IR Inten    --      1.2022                34.1730               480.8018

                     76                     77                     78
                      A                      A                      A
 Frequencies --   1462.5104              1480.0352              1487.3758
 Red. masses --      1.3725                 2.1126                 2.1766
 Frc consts  --      1.7297                 2.7266                 2.8371
 IR Inten    --     81.3485               215.4571                 6.3670

                     79                     80                     81
                      A                      A                      A
 Frequencies --   1496.3822              1499.1968              1545.2275
 Red. masses --      1.0539                 1.0366                 2.4550
 Frc consts  --      1.3904                 1.3726                 3.4537
 IR Inten    --     59.3451                10.5765                76.0123

                     82                     83                     84
                      A                      A                      A
 Frequencies --   1547.4260              1568.7562              1634.0094
 Red. masses --      2.4299                 1.9504                 1.0952
 Frc consts  --      3.4282                 2.8280                 1.7229
 IR Inten    --    187.8618               475.2509                87.8691

                     85                     86                     87
                      A                      A                      A
 Frequencies --   1647.0909              1662.2515              1669.2795
 Red. masses --      5.7653                 6.8841                 4.7317
 Frc consts  --      9.2152                11.2070                 7.7683
 IR Inten    --      1.4346               184.0258                85.8747

                     88                     89                     90
                      A                      A                      A
 Frequencies --   1673.2564              1687.0831              3077.5278
 Red. masses --      5.2325                 6.5290                 1.0324
 Frc consts  --      8.6315                10.9489                 5.7609
 IR Inten    --     50.0930               605.8377                19.1370

                     91                     92                     93
                      A                      A                      A
 Frequencies --   3160.5526              3173.2604              3188.0893
 Red. masses --      1.1050                 1.1063                 1.0882
 Frc consts  --      6.5034                 6.5634                 6.5167
 IR Inten    --      7.4782                 8.4416                12.6450

                     94                     95                     96
                      A                      A                      A
 Frequencies --   3189.4225              3195.6582              3197.6204
 Red. masses --      1.0859                 1.0882                 1.0882
 Frc consts  --      6.5085                 6.5476                 6.5555
 IR Inten    --      3.7647                 0.7624                 1.8554

                     97                     98                     99
                      A                      A                      A
 Frequencies --   3204.8048              3207.3557              3213.2929
 Red. masses --      1.0923                 1.0931                 1.0946
 Frc consts  --      6.6101                 6.6252                 6.6592
 IR Inten    --     26.0136                28.9612                44.4420

                    100                    101                    102
                      A                      A                      A
 Frequencies --   3221.2435              3221.7022              3259.1246
 Red. masses --      1.0980                 1.0979                 1.0927
 Frc consts  --      6.7127                 6.7141                 6.8385
 IR Inten    --     15.2276                22.6452                 1.6261

                    103                    104                    105
                      A                      A                      A
 Frequencies --   3519.0542              3603.5335              3617.9959
 Red. masses --      1.0506                 1.0967                 1.0762
 Frc consts  --      7.6655                 8.3906                 8.2999
 IR Inten    --     73.7522                63.2509               183.1536

 - Thermochemistry -
 -------------------
 Temperature   298.150 Kelvin.  Pressure   1.00000 Atm.
 Atom     1 has atomic number  6 and mass  12.00000

 Molecular mass:   322.06397 amu.
 Principal axes and moments of inertia in atomic units:
                           1         2         3
     Eigenvalues --  4421.35922********************
           X            0.99989   0.01447  -0.00166
           Y           -0.01443   0.99970   0.01999
           Z            0.00195  -0.01996   0.99980
 This molecule is an asymmetric top.
 Rotational symmetry number  1.
 Warning -- assumption of classical behavior for rotation
           may cause significant error
 Rotational temperatures (Kelvin)      0.01959     0.00817     0.00678
 Rotational constants (GHZ):           0.40819     0.17028     0.14129
    1 imaginary frequencies ignored.
 Zero-point vibrational energy     766402.0 (Joules/Mol)
                                  183.17447 (Kcal/Mol)
 Warning -- explicit consideration of  29 degrees of freedom as
           vibrations may cause significant error
 Vibrational temperatures:     34.38    40.08    52.03    74.66    99.64
          (Kelvin)            117.36   126.87   148.77   189.58   238.93
                              254.94   272.80   314.35   335.79   356.90
                              377.23   389.41   432.21   488.00   529.85
                              561.39   607.01   610.39   611.81   749.23
                              755.22   789.21   824.07   864.00   911.97
                              920.80   936.83   973.68  1034.11  1042.04
                             1057.69  1119.63  1125.56  1141.73  1189.13
                             1238.27  1246.34  1260.20  1326.40  1355.44
                             1376.49  1442.59  1453.79  1463.24  1466.53
                             1469.42  1475.98  1478.27  1482.29  1513.08
                             1527.90  1536.15  1566.88  1596.31  1613.06
                             1700.02  1700.85  1736.16  1739.83  1750.69
                             1777.42  1831.18  1882.18  1892.03  1926.33
                             1939.53  1951.51  1962.18  2060.40  2104.23
                             2129.44  2140.00  2152.96  2157.01  2223.24
                             2226.40  2257.09  2350.98  2369.80  2391.61
                             2401.72  2407.44  2427.34  4427.88  4547.33
                             4565.61  4586.95  4588.87  4597.84  4600.66
                             4611.00  4614.67  4623.21  4634.65  4635.31
                             4689.15  5063.13  5184.68  5205.49

 Zero-point correction=                           0.291907 (Hartree/Particle)
 Thermal correction to Energy=                    0.311591
 Thermal correction to Enthalpy=                  0.312535
 Thermal correction to Gibbs Free Energy=         0.241251
 Sum of electronic and zero-point Energies=          -1724.183534
 Sum of electronic and thermal Energies=             -1724.163850
 Sum of electronic and thermal Enthalpies=           -1724.162906
 Sum of electronic and thermal Free Energies=        -1724.234190

                     E (Thermal)             CV                S
                      KCal/Mol        Cal/Mol-Kelvin    Cal/Mol-Kelvin
 Total                  195.526             73.687            150.030
 Electronic               0.000              0.000              0.000
 Translational            0.889              2.981             43.204
 Rotational               0.889              2.981             34.747
 Vibrational            193.749             67.726             72.078
 Vibration     1          0.593              1.985              6.281
 Vibration     2          0.593              1.984              5.977
 Vibration     3          0.594              1.982              5.459
 Vibration     4          0.596              1.977              4.744
 Vibration     5          0.598              1.969              4.175
 Vibration     6          0.600              1.962              3.853
 Vibration     7          0.601              1.957              3.700
 Vibration     8          0.605              1.946              3.389
 Vibration     9          0.612              1.922              2.920
 Vibration    10          0.624              1.884              2.480
 Vibration    11          0.628              1.870              2.358
 Vibration    12          0.633              1.854              2.232
 Vibration    13          0.646              1.813              1.972
 Vibration    14          0.654              1.790              1.853
 Vibration    15          0.662              1.766              1.744
 Vibration    16          0.669              1.742              1.647
 Vibration    17          0.674              1.727              1.592
 Vibration    18          0.693              1.673              1.415
 Vibration    19          0.719              1.597              1.216
 Vibration    20          0.741              1.537              1.087
 Vibration    21          0.758              1.491              0.999
 Vibration    22          0.784              1.423              0.886
 Vibration    23          0.786              1.418              0.878
 Vibration    24          0.787              1.415              0.874
 Vibration    25          0.876              1.204              0.608
 Vibration    26          0.880              1.195              0.599
 Vibration    27          0.904              1.143              0.547
 Vibration    28          0.929              1.090              0.499
 Vibration    29          0.959              1.031              0.449

 Optimization completed on the basis of negligible forces.
    -- Stationary point found.
 Normal termination of Gaussian 16 at Mon Mar  1 12:08:11 2021.
