 Gaussian 16, Revision A.03,
 Gaussian 16:  ES64L-G16RevA.03 25-Dec-2016

 ----------------------------------------------------------------------
 # wB97XD def2tzvp, opt=(ts, noeigen, calcfc, maxcycles=70, maxstep=5),
  freq=noraman, scrf=(iefpcm, solvent=water)
 ----------------------------------------------------------------------

 ------------------------
 2_iteration/TS-962-2.out
 ------------------------
 Symbolic Z-matrix:
 Charge =  0 Multiplicity = 1

 SCF Done:  E(RwB97XD) =  -1477.36355506     A.U. after   15 cycles
 SCF Done:  E(RwB97XD) =  -1477.36355470     A.U. after    7 cycles
 Optimization completed.
    -- Stationary point found.
 Normal termination of Gaussian 16 at Sun Feb 28 22:34:45 2021.

 ---------------------------------------------------------------------
 #N Geom=AllCheck Guess=TCheck SCRF=Check GenChk RwB97XD/def2TZVP Freq
 ---------------------------------------------------------------------

 Structure from the checkpoint file:  "/beegfs/scratch/user/q/tla25/Gau-36722.chk"
 ------------------------
 2_iteration/TS-962-2.out
 ------------------------
 Charge =  0 Multiplicity = 1

                         Standard orientation:
 ---------------------------------------------------------------------
 Center     Atomic      Atomic             Coordinates (Angstroms)
 Number     Number       Type             X           Y           Z
 ---------------------------------------------------------------------
      1          6           0       -0.215062    0.539317   -0.148251
      2          6           0       -0.558108    1.940267   -0.105360
      3          8           0        0.324051    2.803925   -0.120589
      4          6           0       -1.136098   -0.506668   -0.237752
      5          6           0       -1.284636   -0.572279    2.534105
      6          1           0       -1.871473   -0.681728    3.444563
      7          1           0       -0.454999   -1.276241    2.546666
      8          1           0       -0.895043    0.442907    2.474385
      9          7           0       -2.104475   -0.821995    1.356454
     10          1           0       -2.426650   -1.782982    1.309779
     11          1           0       -2.922579   -0.223098    1.337400
     12         17           0       -0.459616   -2.127740   -0.423797
     13         17           0       -2.569520   -0.366831   -1.302769
     14          6           0        1.249702    0.235124   -0.089020
     15          6           0        1.946616    0.204980    1.115575
     16          6           0        3.309237   -0.056781    1.147554
     17          6           0        4.002098   -0.289038   -0.031634
     18          6           0        3.323050   -0.250356   -1.241667
     19          6           0        1.961767    0.012537   -1.266197
     20          1           0        1.418729    0.392208    2.041899
     21          1           0        3.830126   -0.079366    2.096913
     22          1           0        5.064780   -0.495683   -0.008570
     23          1           0        3.854888   -0.424701   -2.168976
     24          1           0        1.434804    0.041428   -2.212651
     25          6           0       -1.991400    2.427036   -0.014918
     26          1           0       -1.977797    3.412852    0.445873
     27          1           0       -2.412216    2.521720   -1.017089
     28          1           0       -2.651353    1.778120    0.556351
 ---------------------------------------------------------------------

 SCF Done:  E(RwB97XD) =  -1477.36355470     A.U. after    1 cycles

 The electronic state is 1-A.
 Alpha  occ. eigenvalues -- -101.71425-101.70948 -19.20855 -14.50753 -10.45910
 Alpha  occ. eigenvalues --  -10.36124 -10.32574 -10.29845 -10.28684 -10.28652
 Alpha  occ. eigenvalues --  -10.28593 -10.28424 -10.28370 -10.27655 -10.27612
 Alpha  occ. eigenvalues --   -9.60018  -9.59554  -7.34693  -7.34213  -7.33785
 Alpha  occ. eigenvalues --   -7.33742  -7.33321  -7.33291  -1.11781  -1.06863
 Alpha  occ. eigenvalues --   -1.00936  -0.96248  -0.93610  -0.88699  -0.84663
 Alpha  occ. eigenvalues --   -0.84121  -0.80852  -0.80178  -0.71483  -0.70002
 Alpha  occ. eigenvalues --   -0.68661  -0.65235  -0.62648  -0.60064  -0.59244
 Alpha  occ. eigenvalues --   -0.57073  -0.56218  -0.55704  -0.53945  -0.53086
 Alpha  occ. eigenvalues --   -0.51877  -0.51041  -0.50479  -0.49552  -0.48984
 Alpha  occ. eigenvalues --   -0.48367  -0.47482  -0.45795  -0.43533  -0.43100
 Alpha  occ. eigenvalues --   -0.42406  -0.42112  -0.41780  -0.39653  -0.39596
 Alpha  occ. eigenvalues --   -0.33375  -0.33084  -0.32234  -0.28762
 Alpha virt. eigenvalues --    0.02923   0.04367   0.05698   0.06638   0.08672
 Alpha virt. eigenvalues --    0.09892   0.12786   0.14113   0.14492   0.14768
 Alpha virt. eigenvalues --    0.16013   0.16785   0.17737   0.18206   0.18825

 Mulliken charges:
               1
     1  C   -0.296322
     2  C    0.248800
     3  O   -0.498901
     4  C    0.119000
     5  C   -0.314736
     6  H    0.176876
     7  H    0.172896
     8  H    0.162338
     9  N   -0.295875
    10  H    0.299550
    11  H    0.289180
    12  Cl  -0.051582
    13  Cl  -0.070498
    14  C    0.270663
    15  C   -0.229729
    16  C   -0.168600
    17  C   -0.136803
    18  C   -0.147288
    19  C   -0.252527
    20  H    0.150202
    21  H    0.137761
    22  H    0.141693
    23  H    0.138586
    24  H    0.135871
    25  C   -0.364595
    26  H    0.132108
    27  H    0.154431
    28  H    0.097499
 Sum of Mulliken charges =  -0.00000

 Dipole moment (field-independent basis, Debye):
    X=             -6.5435    Y=             -5.9813    Z=              5.5423  Tot=             10.4552
 Quadrupole moment (field-independent basis, Debye-Ang):
   XX=            -86.1564   YY=           -117.9987   ZZ=            -89.2259
   XY=             -3.8260   XZ=            -10.1406   YZ=             -2.9672

  Exact polarizability: 264.489   5.215 220.745  -0.347  -2.645 220.575
 Approx polarizability: 210.063   4.170 183.039   0.609  -0.734 190.119

 ******    1 imaginary frequencies (negative Signs) ******

                      1                      2                      3
                      A                      A                      A
 Frequencies --   -360.7032                37.7680                59.8418
 Red. masses --      5.8263                 3.9312                 7.2339
 Frc consts  --      0.4466                 0.0033                 0.0153
 IR Inten    --    833.0342                 0.4432                 8.4550

                      4                      5                      6
                      A                      A                      A
 Frequencies --     75.8992                84.1074                93.4242
 Red. masses --      5.8139                 4.0898                 3.4348
 Frc consts  --      0.0197                 0.0170                 0.0177
 IR Inten    --      4.8023                 4.7456                 2.0108

                      7                      8                      9
                      A                      A                      A
 Frequencies --    135.7858               167.6349               190.1820
 Red. masses --      3.8395                 4.8995                 2.4804
 Frc consts  --      0.0417                 0.0811                 0.0529
 IR Inten    --      4.2498                 2.8024                 2.5551

                     10                     11                     12
                      A                      A                      A
 Frequencies --    206.5079               215.4653               235.3835
 Red. masses --      1.3459                 1.1838                 4.1899
 Frc consts  --      0.0338                 0.0324                 0.1368
 IR Inten    --      2.6016                 2.3049                 2.7613

                     13                     14                     15
                      A                      A                      A
 Frequencies --    255.5644               268.7041               295.1515
 Red. masses --      6.2499                 4.1147                 4.2768
 Frc consts  --      0.2405                 0.1750                 0.2195
 IR Inten    --      3.4327                13.5147                16.3863

                     16                     17                     18
                      A                      A                      A
 Frequencies --    326.8050               360.3603               372.5317
 Red. masses --      5.6910                 4.8033                 5.2662
 Frc consts  --      0.3581                 0.3675                 0.4306
 IR Inten    --     27.3052                10.9497                 7.1781

                     19                     20                     21
                      A                      A                      A
 Frequencies --    424.5312               444.1195               521.7791
 Red. masses --      2.8687                 7.3808                 4.0166
 Frc consts  --      0.3046                 0.8577                 0.6443
 IR Inten    --      0.0672                 9.5749                 8.9007

                     22                     23                     24
                      A                      A                      A
 Frequencies --    536.4552               591.8894               633.4340
 Red. masses --      4.2338                 3.9272                 5.4693
 Frc consts  --      0.7179                 0.8106                 1.2929
 IR Inten    --     96.7165                81.7428                 8.3726

                     25                     26                     27
                      A                      A                      A
 Frequencies --    651.8850               673.5253               698.7479
 Red. masses --      4.6533                 1.6304                 3.2828
 Frc consts  --      1.1651                 0.4358                 0.9444
 IR Inten    --     72.1736                13.0018                51.1314

                     28                     29                     30
                      A                      A                      A
 Frequencies --    726.5902               768.1843               804.9230
 Red. masses --      1.5815                 3.0911                 3.4982
 Frc consts  --      0.4919                 1.0747                 1.3354
 IR Inten    --     86.3916               142.1259               122.5922

                     31                     32                     33
                      A                      A                      A
 Frequencies --    861.3616               876.8244               929.3349
 Red. masses --      3.7115                 1.2524                 2.6059
 Frc consts  --      1.6225                 0.5673                 1.3260
 IR Inten    --    139.6583                 1.1258                24.3740

                     34                     35                     36
                      A                      A                      A
 Frequencies --    962.9144              1010.2352              1014.7997
 Red. masses --      1.7529                 1.3588                 1.1400
 Frc consts  --      0.9576                 0.8171                 0.6917
 IR Inten    --     48.7179                 0.6120                 4.7342

                     37                     38                     39
                      A                      A                      A
 Frequencies --   1025.9379              1027.0483              1034.0980
 Red. masses --      1.4007                 4.5341                 1.6451
 Frc consts  --      0.8686                 2.8179                 1.0365
 IR Inten    --      3.8056                 1.3919                63.6808

                     40                     41                     42
                      A                      A                      A
 Frequencies --   1042.2457              1054.3272              1066.1160
 Red. masses --      1.7381                 1.4524                 1.8508
 Frc consts  --      1.1124                 0.9512                 1.2394
 IR Inten    --      2.8583                63.9426                27.3728

                     43                     44                     45
                      A                      A                      A
 Frequencies --   1087.8870              1109.3178              1181.1366
 Red. masses --      4.4523                 1.5531                 1.1334
 Frc consts  --      3.1046                 1.1261                 0.9316
 IR Inten    --     71.0855                13.5565                 0.0717

                     46                     47                     48
                      A                      A                      A
 Frequencies --   1206.7952              1212.3749              1238.8312
 Red. masses --      1.1336                 3.5556                 1.3931
 Frc consts  --      0.9727                 3.0792                 1.2596
 IR Inten    --      0.1829                83.5464                32.7762

                     49                     50                     51
                      A                      A                      A
 Frequencies --   1307.6175              1335.8283              1343.4866
 Red. masses --      4.5510                 3.0022                 1.5247
 Frc consts  --      4.5848                 3.1564                 1.6214
 IR Inten    --      0.5717               913.5753               238.0305

                     52                     53                     54
                      A                      A                      A
 Frequencies --   1356.0916              1393.1111              1406.8079
 Red. masses --      1.4434                 1.6475                 3.3451
 Frc consts  --      1.5639                 1.8839                 3.9006
 IR Inten    --      0.1702               303.6352               233.7775

                     55                     56                     57
                      A                      A                      A
 Frequencies --   1459.4976              1465.9497              1486.9010
 Red. masses --      1.2115                 1.0782                 2.0856
 Frc consts  --      1.5205                 1.3651                 2.7167
 IR Inten    --     16.8386                17.3667                 9.3840

                     58                     59                     60
                      A                      A                      A
 Frequencies --   1488.0749              1496.4525              1502.0707
 Red. masses --      1.1035                 1.0330                 1.0530
 Frc consts  --      1.4397                 1.3629                 1.3998
 IR Inten    --      9.9589                15.5236                56.0795

                     61                     62                     63
                      A                      A                      A
 Frequencies --   1544.1783              1639.1829              1645.4170
 Red. masses --      2.4245                 1.1399                 6.8620
 Frc consts  --      3.4062                 1.8046                10.9459
 IR Inten    --     44.2027               178.1180               490.5094

                     64                     65                     66
                      A                      A                      A
 Frequencies --   1646.4337              1672.9045              3076.8739
 Red. masses --      5.8101                 6.0946                 1.0375
 Frc consts  --      9.2795                10.0494                 5.7872
 IR Inten    --     19.0581                61.1894                10.4922

                     67                     68                     69
                      A                      A                      A
 Frequencies --   3077.6316              3152.2255              3163.3014
 Red. masses --      1.0322                 1.0991                 1.1052
 Frc consts  --      5.7605                 6.4348                 6.5159
 IR Inten    --     16.9294                15.1518                 5.7593

                     70                     71                     72
                      A                      A                      A
 Frequencies --   3172.7712              3173.4287              3188.7002
 Red. masses --      1.1025                 1.1065                 1.0861
 Frc consts  --      6.5387                 6.5656                 6.5063
 IR Inten    --     36.5023                 9.1980                 4.8638

                     73                     74                     75
                      A                      A                      A
 Frequencies --   3194.8953              3204.4590              3213.6728
 Red. masses --      1.0880                 1.0925                 1.0944
 Frc consts  --      6.5434                 6.6094                 6.6590
 IR Inten    --      0.6525                27.3475                44.1453

                     76                     77                     78
                      A                      A                      A
 Frequencies --   3221.4414              3520.9271              3602.0523
 Red. masses --      1.0977                 1.0509                 1.0962
 Frc consts  --      6.7115                 7.6761                 8.3796
 IR Inten    --     14.3245                82.5536                64.2700

 - Thermochemistry -
 -------------------
 Temperature   298.150 Kelvin.  Pressure   1.00000 Atm.
 Atom     1 has atomic number  6 and mass  12.00000

 Molecular mass:   245.03742 amu.
 Principal axes and moments of inertia in atomic units:
                           1         2         3
     Eigenvalues --  2641.342014775.726475381.60306
           X            0.99924  -0.02907  -0.02605
           Y            0.02810   0.99892  -0.03688
           Z            0.02710   0.03612   0.99898
 This molecule is an asymmetric top.
 Rotational symmetry number  1.
 Warning -- assumption of classical behavior for rotation
           may cause significant error
 Rotational temperatures (Kelvin)      0.03279     0.01814     0.01609
 Rotational constants (GHZ):           0.68327     0.37790     0.33535
    1 imaginary frequencies ignored.
 Zero-point vibrational energy     579896.7 (Joules/Mol)
                                  138.59863 (Kcal/Mol)
 Warning -- explicit consideration of  22 degrees of freedom as
           vibrations may cause significant error
 Vibrational temperatures:     54.34    86.10   109.20   121.01   134.42
          (Kelvin)            195.37   241.19   273.63   297.12   310.01
                              338.66   367.70   386.61   424.66   470.20
                              518.48   535.99   610.81   638.99   750.72
                              771.84   851.60   911.37   937.92   969.05
                             1005.34  1045.40  1105.25  1158.10  1239.31
                             1261.55  1337.11  1385.42  1453.50  1460.07
                             1476.10  1477.69  1487.84  1499.56  1516.94
                             1533.90  1565.23  1596.06  1699.39  1736.31
                             1744.34  1782.40  1881.37  1921.96  1932.98
                             1951.11  2004.38  2024.08  2099.89  2109.17
                             2139.32  2141.01  2153.06  2161.14  2221.73
                             2358.42  2367.39  2368.85  2406.94  4426.94
                             4428.03  4535.35  4551.29  4564.91  4565.86
                             4587.83  4596.74  4610.50  4623.76  4634.94
                             5065.83  5182.55

 Zero-point correction=                           0.220871 (Hartree/Particle)
 Thermal correction to Energy=                    0.236159
 Thermal correction to Enthalpy=                  0.237103
 Thermal correction to Gibbs Free Energy=         0.177695
 Sum of electronic and zero-point Energies=          -1477.142684
 Sum of electronic and thermal Energies=             -1477.127396
 Sum of electronic and thermal Enthalpies=           -1477.126452
 Sum of electronic and thermal Free Energies=        -1477.185859

                     E (Thermal)             CV                S
                      KCal/Mol        Cal/Mol-Kelvin    Cal/Mol-Kelvin
 Total                  148.192             56.205            125.034
 Electronic               0.000              0.000              0.000
 Translational            0.889              2.981             42.390
 Rotational               0.889              2.981             32.584
 Vibrational            146.415             50.244             50.060
 Vibration     1          0.594              1.982              5.373
 Vibration     2          0.597              1.973              4.462
 Vibration     3          0.599              1.965              3.994
 Vibration     4          0.601              1.960              3.793
 Vibration     5          0.602              1.954              3.587
 Vibration     6          0.614              1.918              2.862
 Vibration     7          0.624              1.882              2.462
 Vibration     8          0.633              1.853              2.226
 Vibration     9          0.641              1.831              2.074
 Vibration    10          0.645              1.817              1.997
 Vibration    11          0.655              1.787              1.838
 Vibration    12          0.666              1.753              1.692
 Vibration    13          0.673              1.731              1.605
 Vibration    14          0.689              1.683              1.444
 Vibration    15          0.710              1.622              1.276
 Vibration    16          0.735              1.554              1.121
 Vibration    17          0.744              1.529              1.069
 Vibration    18          0.787              1.417              0.877
 Vibration    19          0.804              1.374              0.814
 Vibration    20          0.877              1.202              0.606
 Vibration    21          0.891              1.169              0.573
 Vibration    22          0.949              1.049              0.464

 Optimization completed on the basis of negligible forces.
    -- Stationary point found.
 Normal termination of Gaussian 16 at Sun Feb 28 23:33:17 2021.
