 Gaussian 16, Revision A.03,
 Gaussian 16:  ES64L-G16RevA.03 25-Dec-2016

 ----------------------------------------------------------------------
 # wB97XD def2tzvp, opt=(ts, noeigen, calcfc, maxcycles=70, maxstep=8),
  freq=noraman, scrf=(iefpcm, solvent=water)
 ----------------------------------------------------------------------

 -----------------------
 1_iteration/TS-92-1.out
 -----------------------
 Symbolic Z-matrix:
 Charge =  0 Multiplicity = 1

 SCF Done:  E(RwB97XD) =  -672.718099204     A.U. after   14 cycles
 SCF Done:  E(RwB97XD) =  -672.718816071     A.U. after   12 cycles
 SCF Done:  E(RwB97XD) =  -672.718854796     A.U. after   11 cycles
 SCF Done:  E(RwB97XD) =  -672.718862329     A.U. after   10 cycles
 SCF Done:  E(RwB97XD) =  -672.718862862     A.U. after    9 cycles
 SCF Done:  E(RwB97XD) =  -672.718862934     A.U. after    6 cycles
 SCF Done:  E(RwB97XD) =  -672.718862902     A.U. after    6 cycles
 SCF Done:  E(RwB97XD) =  -672.718862930     A.U. after    6 cycles
 Optimization completed.
    -- Stationary point found.
 Normal termination of Gaussian 16 at Sun Jan 31 05:51:30 2021.

 ---------------------------------------------------------------------
 #N Geom=AllCheck Guess=TCheck SCRF=Check GenChk RwB97XD/def2TZVP Freq
 ---------------------------------------------------------------------

 Structure from the checkpoint file:  "/beegfs/scratch/user/q/tla25/Gau-64929.chk"
 -----------------------
 1_iteration/TS-92-1.out
 -----------------------
 Charge =  0 Multiplicity = 1

                         Standard orientation:
 ---------------------------------------------------------------------
 Center     Atomic      Atomic             Coordinates (Angstroms)
 Number     Number       Type             X           Y           Z
 ---------------------------------------------------------------------
      1          6           0       -1.075546   -0.634213    0.157630
      2          6           0       -2.448690   -0.306268    0.155763
      3          8           0       -2.963643    0.808805    0.283243
      4          6           0       -0.050355    0.319126    0.398565
      5          6           0        0.817424    2.618441   -1.191418
      6          1           0        1.827935    2.216603   -1.126366
      7          1           0        0.696704    3.131596   -2.146066
      8          1           0        0.665951    3.333287   -0.386328
      9          7           0       -0.138396    1.520584   -1.053951
     10          1           0       -1.096185    1.848137   -0.964757
     11          1           0       -0.104974    0.896803   -1.851492
     12          6           0        1.350152   -0.211475    0.235810
     13          6           0        1.682733   -0.970246   -0.887633
     14          6           0        2.964764   -1.460278   -1.066099
     15          6           0        3.946218   -1.206358   -0.117176
     16          6           0        3.630557   -0.455510    1.003069
     17          6           0        2.345937    0.043622    1.173825
     18          1           0        0.929145   -1.180357   -1.636982
     19          1           0        3.199049   -2.041201   -1.949136
     20          1           0        4.949358   -1.589786   -0.253485
     21          1           0        4.386178   -0.250808    1.750955
     22          1           0        2.128131    0.628166    2.056719
     23          6           0       -0.239171    1.318755    1.520062
     24          1           0       -1.234815    1.749750    1.471137
     25          1           0       -0.145588    0.793698    2.472036
     26          1           0        0.504691    2.114563    1.500973
     27          1           0       -0.805530   -1.615225   -0.203335
     28          8           0       -3.243777   -1.399644   -0.056539
     29          6           0       -4.636611   -1.157636   -0.153365
     30          1           0       -5.097307   -2.127587   -0.328981
     31          1           0       -5.031457   -0.725897    0.767672
     32          1           0       -4.867615   -0.486876   -0.982739
 ---------------------------------------------------------------------

 SCF Done:  E(RwB97XD) =  -672.718862930     A.U. after    1 cycles

 The electronic state is 1-A.
 Alpha  occ. eigenvalues --  -19.26911 -19.20139 -14.48428 -10.38188 -10.35304
 Alpha  occ. eigenvalues --  -10.32050 -10.31779 -10.30481 -10.29363 -10.29349
 Alpha  occ. eigenvalues --  -10.29296 -10.29257 -10.29200 -10.27304 -10.23831
 Alpha  occ. eigenvalues --   -1.17948  -1.08444  -1.04054  -0.97350  -0.91229
 Alpha  occ. eigenvalues --   -0.85594  -0.84649  -0.82535  -0.79438  -0.77323
 Alpha  occ. eigenvalues --   -0.72552  -0.70502  -0.66758  -0.63854  -0.62485
 Alpha  occ. eigenvalues --   -0.60554  -0.58200  -0.56762  -0.56167  -0.55590
 Alpha  occ. eigenvalues --   -0.54936  -0.54320  -0.52963  -0.52551  -0.51222
 Alpha  occ. eigenvalues --   -0.49321  -0.48360  -0.47947  -0.46979  -0.46625
 Alpha  occ. eigenvalues --   -0.46350  -0.45203  -0.43144  -0.42714  -0.42187
 Alpha  occ. eigenvalues --   -0.41488  -0.37077  -0.34349  -0.34099  -0.33421
 Alpha  occ. eigenvalues --   -0.26609
 Alpha virt. eigenvalues --    0.02780   0.04928   0.09336   0.10392   0.12958
 Alpha virt. eigenvalues --    0.13449   0.13870   0.15336   0.15749   0.16574
 Alpha virt. eigenvalues --    0.16887   0.17604   0.18206   0.18362   0.18959

 Mulliken charges:
               1
     1  C   -0.521848
     2  C    0.446214
     3  O   -0.563156
     4  C    0.313843
     5  C   -0.298967
     6  H    0.157952
     7  H    0.156451
     8  H    0.158527
     9  N   -0.301572
    10  H    0.279732
    11  H    0.271888
    12  C    0.083322
    13  C   -0.269914
    14  C   -0.155125
    15  C   -0.139237
    16  C   -0.145647
    17  C   -0.223926
    18  H    0.165079
    19  H    0.143851
    20  H    0.145572
    21  H    0.143775
    22  H    0.158907
    23  C   -0.448517
    24  H    0.163354
    25  H    0.146579
    26  H    0.141727
    27  H    0.131941
    28  O   -0.323558
    29  C   -0.185358
    30  H    0.132320
    31  H    0.118295
    32  H    0.117496
 Sum of Mulliken charges =  -0.00000

 Dipole moment (field-independent basis, Debye):
    X=              5.5464    Y=              3.3075    Z=             -3.5252  Tot=              7.3573
 Quadrupole moment (field-independent basis, Debye-Ang):
   XX=            -90.9000   YY=            -86.4953   ZZ=            -82.4625
   XY=              2.9741   XZ=              3.7545   YZ=             -0.6516

  Exact polarizability: 280.854   0.743 196.001   0.801  11.657 192.762
 Approx polarizability: 203.139  -4.282 164.488   2.935  12.075 165.099

 ******    1 imaginary frequencies (negative Signs) ******

                      1                      2                      3
                      A                      A                      A
 Frequencies --   -353.0058                46.9911                66.6099
 Red. masses --      5.9445                 3.8204                 2.8951
 Frc consts  --      0.4364                 0.0050                 0.0076
 IR Inten    --    733.4284                 0.7410                 4.6784

                      4                      5                      6
                      A                      A                      A
 Frequencies --     71.8565                74.8500                95.7840
 Red. masses --      3.6440                 4.3660                 3.3315
 Frc consts  --      0.0111                 0.0144                 0.0180
 IR Inten    --      8.9380                 7.5204                 0.9556

                      7                      8                      9
                      A                      A                      A
 Frequencies --    120.1481               138.2443               173.4273
 Red. masses --      1.8449                 2.4533                 1.3143
 Frc consts  --      0.0157                 0.0276                 0.0233
 IR Inten    --     15.0899                 5.5057                 0.9019

                     10                     11                     12
                      A                      A                      A
 Frequencies --    192.7381               220.8084               255.4135
 Red. masses --      1.8567                 2.2970                 3.0477
 Frc consts  --      0.0406                 0.0660                 0.1171
 IR Inten    --      9.7197                 3.3120                 6.2295

                     13                     14                     15
                      A                      A                      A
 Frequencies --    276.9621               295.3988               320.4256
 Red. masses --      3.8538                 3.8152                 2.1092
 Frc consts  --      0.1742                 0.1961                 0.1276
 IR Inten    --      3.7617                41.9220                20.1550

                     16                     17                     18
                      A                      A                      A
 Frequencies --    343.5634               371.1750               381.8190
 Red. masses --      1.5677                 3.6065                 3.3344
 Frc consts  --      0.1090                 0.2927                 0.2864
 IR Inten    --      1.2117                 6.2137                16.3641

                     19                     20                     21
                      A                      A                      A
 Frequencies --    424.2769               436.8462               497.3732
 Red. masses --      2.9045                 3.1471                 3.3909
 Frc consts  --      0.3080                 0.3539                 0.4942
 IR Inten    --      0.9326                15.0583                30.5274

                     22                     23                     24
                      A                      A                      A
 Frequencies --    560.2533               619.2959               638.4081
 Red. masses --      2.7493                 4.1151                 6.2682
 Frc consts  --      0.5084                 0.9299                 1.5052
 IR Inten    --     76.8919                 7.8601                 0.4026

                     25                     26                     27
                      A                      A                      A
 Frequencies --    660.8204               704.6798               725.4113
 Red. masses --      1.2562                 1.4201                 4.5875
 Frc consts  --      0.3232                 0.4155                 1.4223
 IR Inten    --    195.0984                40.4171                 4.0159

                     28                     29                     30
                      A                      A                      A
 Frequencies --    729.9923               788.4293               800.0874
 Red. masses --      1.5658                 5.0916                 3.2129
 Frc consts  --      0.4916                 1.8648                 1.2118
 IR Inten    --     85.1929                83.3859                13.4242

                     31                     32                     33
                      A                      A                      A
 Frequencies --    804.3443               880.2004               929.2364
 Red. masses --      3.1263                 1.2453                 3.8361
 Frc consts  --      1.1917                 0.5684                 1.9516
 IR Inten    --     34.8463                 0.3722               179.3385

                     34                     35                     36
                      A                      A                      A
 Frequencies --    965.7674               979.1183              1016.8654
 Red. masses --      1.4606                 2.6153                 1.3576
 Frc consts  --      0.8027                 1.4772                 0.8271
 IR Inten    --      2.2213                21.0077                 0.9875

                     37                     38                     39
                      A                      A                      A
 Frequencies --   1025.7727              1027.6070              1033.5134
 Red. masses --      2.8223                 1.4396                 1.3088
 Frc consts  --      1.7497                 0.8957                 0.8237
 IR Inten    --      5.8424                25.6421                 0.9730

                     40                     41                     42
                      A                      A                      A
 Frequencies --   1052.0982              1054.5728              1064.5092
 Red. masses --      1.5980                 1.5505                 2.1714
 Frc consts  --      1.0421                 1.0160                 1.4498
 IR Inten    --     20.9978               132.0241                47.8280

                     43                     44                     45
                      A                      A                      A
 Frequencies --   1093.5662              1109.8148              1119.9933
 Red. masses --      2.3084                 2.6130                 2.1524
 Frc consts  --      1.6265                 1.8962                 1.5907
 IR Inten    --     42.9203               180.5796                 2.5994

                     46                     47                     48
                      A                      A                      A
 Frequencies --   1129.3215              1181.9093              1186.9263
 Red. masses --      1.7397                 1.2812                 1.1292
 Frc consts  --      1.3072                 1.0545                 0.9372
 IR Inten    --     20.4989                 1.5520                 0.0565

                     49                     50                     51
                      A                      A                      A
 Frequencies --   1199.9115              1214.0908              1221.6925
 Red. masses --      2.5756                 1.4936                 1.1544
 Frc consts  --      2.1849                 1.2971                 1.0152
 IR Inten    --    797.1741                22.2926                 7.1993

                     52                     53                     54
                      A                      A                      A
 Frequencies --   1233.4903              1297.8999              1306.3051
 Red. masses --      1.3766                 3.6098                 3.2959
 Frc consts  --      1.2341                 3.5828                 3.3137
 IR Inten    --     39.0784               116.4409                24.1397

                     55                     56                     57
                      A                      A                      A
 Frequencies --   1344.4465              1351.0792              1369.6593
 Red. masses --      1.6547                 2.1102                 1.3908
 Frc consts  --      1.7622                 2.2695                 1.5372
 IR Inten    --     12.8404                 9.5387                 1.0243

                     58                     59                     60
                      A                      A                      A
 Frequencies --   1415.5446              1452.0001              1464.0177
 Red. masses --      1.3613                 1.4378                 1.2808
 Frc consts  --      1.6072                 1.7860                 1.6175
 IR Inten    --     28.6984               387.0344               103.4281

                     61                     62                     63
                      A                      A                      A
 Frequencies --   1480.9225              1484.4237              1490.9588
 Red. masses --      1.0519                 1.2415                 1.3476
 Frc consts  --      1.3592                 1.6118                 1.7650
 IR Inten    --     20.9038               346.0030                53.8832

                     64                     65                     66
                      A                      A                      A
 Frequencies --   1493.7357              1498.7258              1502.9364
 Red. masses --      1.2036                 1.1940                 1.1400
 Frc consts  --      1.5822                 1.5802                 1.5172
 IR Inten    --      1.5498                25.5288                46.6569

                     67                     68                     69
                      A                      A                      A
 Frequencies --   1506.9354              1520.6238              1550.0062
 Red. masses --      1.0855                 1.3361                 2.3094
 Frc consts  --      1.4524                 1.8202                 3.2690
 IR Inten    --     43.6862               225.6951                 8.5692

                     70                     71                     72
                      A                      A                      A
 Frequencies --   1645.6689              1649.7391              1658.1756
 Red. masses --      1.0900                 7.2228                 6.9167
 Frc consts  --      1.7393                11.5821                11.2049
 IR Inten    --     76.3286               496.0114               363.3320

                     73                     74                     75
                      A                      A                      A
 Frequencies --   1678.1027              3051.4753              3068.7247
 Red. masses --      5.8321                 1.0313                 1.0350
 Frc consts  --      9.6764                 5.6580                 5.7425
 IR Inten    --      4.8262                79.8184                38.5844

                     76                     77                     78
                      A                      A                      A
 Frequencies --   3071.8518              3121.5627              3139.8686
 Red. masses --      1.0389                 1.1059                 1.1005
 Frc consts  --      5.7762                 6.3492                 6.3925
 IR Inten    --     30.4230                51.3406                32.1854

                     79                     80                     81
                      A                      A                      A
 Frequencies --   3145.0786              3157.5263              3174.0025
 Red. masses --      1.1042                 1.1043                 1.1044
 Frc consts  --      6.4349                 6.4870                 6.5552
 IR Inten    --     12.7716                33.9704                15.4329

                     82                     83                     84
                      A                      A                      A
 Frequencies --   3184.5695              3193.7643              3200.8916
 Red. masses --      1.1010                 1.0865                 1.0886
 Frc consts  --      6.5788                 6.5298                 6.5713
 IR Inten    --      2.2231                 4.4616                 2.9517

                     85                     86                     87
                      A                      A                      A
 Frequencies --   3210.2693              3220.8195              3227.6654
 Red. masses --      1.0929                 1.0968                 1.0884
 Frc consts  --      6.6360                 6.7035                 6.6805
 IR Inten    --     24.1499                23.0270                 8.0085

                     88                     89                     90
                      A                      A                      A
 Frequencies --   3232.6533              3506.4309              3593.6566
 Red. masses --      1.0940                 1.0538                 1.0942
 Frc consts  --      6.7356                 7.6335                 8.3256
 IR Inten    --      9.9537                28.9877                48.7344

 - Thermochemistry -
 -------------------
 Temperature   298.150 Kelvin.  Pressure   1.00000 Atm.
 Atom     1 has atomic number  6 and mass  12.00000

 Molecular mass:   207.12593 amu.
 Principal axes and moments of inertia in atomic units:
                           1         2         3
     Eigenvalues --  1665.791675467.791236036.11043
           X            0.99997   0.00750   0.00155
           Y           -0.00752   0.99991   0.01146
           Z           -0.00146  -0.01147   0.99993
 This molecule is an asymmetric top.
 Rotational symmetry number  1.
 Warning -- assumption of classical behavior for rotation
           may cause significant error
 Rotational temperatures (Kelvin)      0.05200     0.01584     0.01435
 Rotational constants (GHZ):           1.08341     0.33007     0.29899
    1 imaginary frequencies ignored.
 Zero-point vibrational energy     719070.1 (Joules/Mol)
                                  171.86187 (Kcal/Mol)
 Warning -- explicit consideration of  22 degrees of freedom as
           vibrations may cause significant error
 Vibrational temperatures:     67.61    95.84   103.39   107.69   137.81
          (Kelvin)            172.87   198.90   249.52   277.31   317.69
                              367.48   398.49   425.01   461.02   494.31
                              534.04   549.35   610.44   628.52   715.61
                              806.08   891.03   918.53   950.77  1013.88
                             1043.71  1050.30  1134.37  1151.15  1157.27
                             1266.41  1336.96  1389.52  1408.73  1463.04
                             1475.86  1478.50  1487.00  1513.73  1517.30
                             1531.59  1573.40  1596.78  1611.42  1624.84
                             1700.50  1707.72  1726.40  1746.81  1757.74
                             1774.72  1867.39  1879.48  1934.36  1943.90
                             1970.63  2036.65  2089.10  2106.39  2130.72
                             2135.75  2145.16  2149.15  2156.33  2162.39
                             2168.14  2187.84  2230.11  2367.75  2373.61
                             2385.74  2414.42  4390.39  4415.21  4419.71
                             4491.23  4517.57  4525.07  4542.98  4566.68
                             4581.89  4595.11  4605.37  4618.86  4634.04
                             4643.89  4651.07  5044.97  5170.47

 Zero-point correction=                           0.273879 (Hartree/Particle)
 Thermal correction to Energy=                    0.289187
 Thermal correction to Enthalpy=                  0.290131
 Thermal correction to Gibbs Free Energy=         0.231095
 Sum of electronic and zero-point Energies=           -672.444984
 Sum of electronic and thermal Energies=              -672.429676
 Sum of electronic and thermal Enthalpies=            -672.428732
 Sum of electronic and thermal Free Energies=         -672.487768

                     E (Thermal)             CV                S
                      KCal/Mol        Cal/Mol-Kelvin    Cal/Mol-Kelvin
 Total                  181.468             57.183            124.252
 Electronic               0.000              0.000              0.000
 Translational            0.889              2.981             41.888
 Rotational               0.889              2.981             32.375
 Vibrational            179.690             51.222             49.988
 Vibration     1          0.595              1.979              4.940
 Vibration     2          0.598              1.970              4.251
 Vibration     3          0.598              1.967              4.102
 Vibration     4          0.599              1.966              4.022
 Vibration     5          0.603              1.952              3.538
 Vibration     6          0.609              1.932              3.098
 Vibration     7          0.614              1.915              2.828
 Vibration     8          0.627              1.875              2.398
 Vibration     9          0.635              1.850              2.201
 Vibration    10          0.648              1.809              1.952
 Vibration    11          0.666              1.754              1.693
 Vibration    12          0.678              1.716              1.552
 Vibration    13          0.690              1.682              1.443
 Vibration    14          0.706              1.634              1.308
 Vibration    15          0.722              1.588              1.196
 Vibration    16          0.743              1.531              1.075
 Vibration    17          0.751              1.509              1.032
 Vibration    18          0.786              1.417              0.878
 Vibration    19          0.797              1.390              0.837
 Vibration    20          0.853              1.256              0.665
 Vibration    21          0.916              1.117              0.523
 Vibration    22          0.979              0.991              0.418

 Optimization completed.
    -- Stationary point found.
 Normal termination of Gaussian 16 at Sun Jan 31 06:52:44 2021.
