 Gaussian 16, Revision A.03,
 Gaussian 16:  ES64L-G16RevA.03 25-Dec-2016

 ----------------------------------------------------------------------
 # wB97XD def2tzvp, opt=(ts, noeigen, calcfc, maxcycles=70, maxstep=1),
  freq=noraman, scrf=(iefpcm, solvent=water)
 ----------------------------------------------------------------------

 -----------------------
 0_iteration/TS-91-0.out
 -----------------------
 Symbolic Z-matrix:
 Charge =  0 Multiplicity = 1

 SCF Done:  E(RwB97XD) =  -613.543955327     A.U. after   15 cycles
 SCF Done:  E(RwB97XD) =  -613.543956526     A.U. after    9 cycles
 SCF Done:  E(RwB97XD) =  -613.543960363     A.U. after    8 cycles
 SCF Done:  E(RwB97XD) =  -613.543975837     A.U. after    9 cycles
 SCF Done:  E(RwB97XD) =  -613.544028279     A.U. after   10 cycles
 SCF Done:  E(RwB97XD) =  -613.544091279     A.U. after   10 cycles
 SCF Done:  E(RwB97XD) =  -613.544153684     A.U. after   10 cycles
 SCF Done:  E(RwB97XD) =  -613.544212650     A.U. after   10 cycles
 SCF Done:  E(RwB97XD) =  -613.544267079     A.U. after   10 cycles
 SCF Done:  E(RwB97XD) =  -613.544316303     A.U. after   10 cycles
 SCF Done:  E(RwB97XD) =  -613.544360007     A.U. after   10 cycles
 SCF Done:  E(RwB97XD) =  -613.544397974     A.U. after   10 cycles
 SCF Done:  E(RwB97XD) =  -613.544430061     A.U. after   10 cycles
 SCF Done:  E(RwB97XD) =  -613.544456152     A.U. after    9 cycles
 SCF Done:  E(RwB97XD) =  -613.544476109     A.U. after    9 cycles
 SCF Done:  E(RwB97XD) =  -613.544489790     A.U. after    9 cycles
 SCF Done:  E(RwB97XD) =  -613.544497081     A.U. after    9 cycles
 SCF Done:  E(RwB97XD) =  -613.544498345     A.U. after    9 cycles
 Optimization completed.
    -- Stationary point found.
 Normal termination of Gaussian 16 at Sat Jan 30 12:21:53 2021.

 ---------------------------------------------------------------------
 #N Geom=AllCheck Guess=TCheck SCRF=Check GenChk RwB97XD/def2TZVP Freq
 ---------------------------------------------------------------------

 Structure from the checkpoint file:  "/beegfs/scratch/user/q/tla25/Gau-61278.chk"
 -----------------------
 0_iteration/TS-91-0.out
 -----------------------
 Charge =  0 Multiplicity = 1

                         Standard orientation:
 ---------------------------------------------------------------------
 Center     Atomic      Atomic             Coordinates (Angstroms)
 Number     Number       Type             X           Y           Z
 ---------------------------------------------------------------------
      1          6           0       -1.335269   -0.914998    0.154373
      2          6           0       -2.742298   -0.732809    0.088598
      3          8           0       -3.328152    0.373002    0.132382
      4          6           0       -0.434251    0.150847    0.412162
      5          6           0        0.038885    2.612850   -1.122890
      6          1           0       -0.155135    3.114213   -2.072104
      7          1           0       -0.253813    3.275142   -0.311646
      8          1           0        1.105249    2.402205   -1.042546
      9          7           0       -0.703313    1.359769   -1.019531
     10          1           0       -1.707163    1.493410   -0.908345
     11          1           0       -0.559100    0.771101   -1.830640
     12          6           0        1.022101   -0.188403    0.235762
     13          6           0        1.444364   -0.886578   -0.896916
     14          6           0        2.778661   -1.201705   -1.087629
     15          6           0        3.725199   -0.827614   -0.143003
     16          6           0        3.321440   -0.133286    0.985439
     17          6           0        1.983263    0.189346    1.168890
     18          1           0        0.718952   -1.187531   -1.643063
     19          1           0        3.081074   -1.739574   -1.977279
     20          1           0        4.769233   -1.073841   -0.289106
     21          1           0        4.049046    0.164407    1.729902
     22          1           0        1.696327    0.732931    2.058195
     23          6           0       -0.744627    1.098085    1.552698
     24          1           0       -0.563719    0.576477    2.494043
     25          1           0       -0.121296    1.991953    1.539817
     26          1           0       -1.791978    1.383575    1.519813
     27          1           0       -0.933172   -1.855614   -0.196189
     28          7           0       -3.519114   -1.871338   -0.044296
     29          1           0       -3.065175   -2.723202   -0.326833
     30          1           0       -4.431937   -1.723093   -0.441196
 ---------------------------------------------------------------------

 SCF Done:  E(RwB97XD) =  -613.544498345     A.U. after    1 cycles

 The electronic state is 1-A.
 Alpha  occ. eigenvalues --  -19.18870 -14.47727 -14.42466 -10.36228 -10.34907
 Alpha  occ. eigenvalues --  -10.31554 -10.30347 -10.29277 -10.29262 -10.29223
 Alpha  occ. eigenvalues --  -10.29190 -10.29140 -10.27075 -10.23465  -1.10812
 Alpha  occ. eigenvalues --   -1.03476  -0.97719  -0.97217  -0.90869  -0.85491
 Alpha  occ. eigenvalues --   -0.83941  -0.79943  -0.78336  -0.73018  -0.70455
 Alpha  occ. eigenvalues --   -0.67322  -0.63923  -0.62197  -0.60874  -0.59027
 Alpha  occ. eigenvalues --   -0.56449  -0.56243  -0.55465  -0.54069  -0.53655
 Alpha  occ. eigenvalues --   -0.51932  -0.50930  -0.49246  -0.48395  -0.47689
 Alpha  occ. eigenvalues --   -0.47155  -0.46552  -0.46272  -0.44919  -0.42892
 Alpha  occ. eigenvalues --   -0.42186  -0.41180  -0.34479  -0.34056  -0.33653
 Alpha  occ. eigenvalues --   -0.32467  -0.26093
 Alpha virt. eigenvalues --    0.02867   0.05004   0.09466   0.10534   0.12787
 Alpha virt. eigenvalues --    0.13563   0.13779   0.15320   0.15843   0.16677
 Alpha virt. eigenvalues --    0.16980   0.17799   0.18345   0.18952   0.19479

 Mulliken charges:
               1
     1  C   -0.521235
     2  C    0.363664
     3  O   -0.604794
     4  C    0.303574
     5  C   -0.298808
     6  H    0.153601
     7  H    0.157147
     8  H    0.154605
     9  N   -0.303430
    10  H    0.273157
    11  H    0.266944
    12  C    0.097874
    13  C   -0.270290
    14  C   -0.156828
    15  C   -0.140167
    16  C   -0.145924
    17  C   -0.220991
    18  H    0.164969
    19  H    0.143336
    20  H    0.145202
    21  H    0.143405
    22  H    0.158577
    23  C   -0.456235
    24  H    0.144255
    25  H    0.139984
    26  H    0.160529
    27  H    0.136090
    28  N   -0.502732
    29  H    0.261092
    30  H    0.253429
 Sum of Mulliken charges =  -0.00000

 Dipole moment (field-independent basis, Debye):
    X=              5.3992    Y=              1.5804    Z=             -4.2017  Tot=              7.0216
 Quadrupole moment (field-independent basis, Debye-Ang):
   XX=            -95.2815   YY=            -75.4285   ZZ=            -78.1486
   XY=              4.9034   XZ=              8.2388   YZ=              3.4923

  Exact polarizability: 264.941  11.588 194.483   0.528  10.921 183.626
 Approx polarizability: 194.943   1.555 159.382   2.235  11.440 157.248

 ******    1 imaginary frequencies (negative Signs) ******

                      1                      2                      3
                      A                      A                      A
 Frequencies --   -378.2571                53.4758                65.3055
 Red. masses --      5.5180                 3.9157                 3.0472
 Frc consts  --      0.4652                 0.0066                 0.0077
 IR Inten    --    864.5418                 0.8648                14.9777

                      4                      5                      6
                      A                      A                      A
 Frequencies --     83.0924                93.9092               116.9424
 Red. masses --      5.0876                 3.6387                 4.2087
 Frc consts  --      0.0207                 0.0189                 0.0339
 IR Inten    --     28.3166                 7.6986                 5.0058

                      7                      8                      9
                      A                      A                      A
 Frequencies --    125.6470               195.9448               233.7397
 Red. masses --      1.4674                 1.7505                 3.1344
 Frc consts  --      0.0136                 0.0396                 0.1009
 IR Inten    --     13.0053                27.4292                26.4282

                     10                     11                     12
                      A                      A                      A
 Frequencies --    249.5018               284.7640               313.3761
 Red. masses --      3.3184                 4.0035                 2.3081
 Frc consts  --      0.1217                 0.1913                 0.1335
 IR Inten    --      1.1809                 8.6588                 4.0521

                     13                     14                     15
                      A                      A                      A
 Frequencies --    341.8473               351.9831               371.9011
 Red. masses --      1.3802                 2.7956                 3.0466
 Frc consts  --      0.0950                 0.2041                 0.2483
 IR Inten    --      1.0006                45.4155                27.1492

                     16                     17                     18
                      A                      A                      A
 Frequencies --    414.8935               423.8945               447.0135
 Red. masses --      1.8098                 2.8818                 1.1659
 Frc consts  --      0.1836                 0.3051                 0.1373
 IR Inten    --    246.0297                 0.6998               141.1305

                     19                     20                     21
                      A                      A                      A
 Frequencies --    457.1637               504.8618               555.3838
 Red. masses --      1.7321                 3.4659                 2.6983
 Frc consts  --      0.2133                 0.5205                 0.4904
 IR Inten    --     75.3221                 0.5911                14.4927

                     22                     23                     24
                      A                      A                      A
 Frequencies --    583.8333               636.2744               642.5693
 Red. masses --      3.2036                 3.9689                 1.5859
 Frc consts  --      0.6434                 0.9467                 0.3858
 IR Inten    --     32.7902                38.3977               204.3553

                     25                     26                     27
                      A                      A                      A
 Frequencies --    681.1163               712.5120               729.3180
 Red. masses --      3.1815                 1.4802                 1.4941
 Frc consts  --      0.8696                 0.4428                 0.4682
 IR Inten    --     23.5053                35.0072                80.6383

                     28                     29                     30
                      A                      A                      A
 Frequencies --    787.5384               799.6652               807.6235
 Red. masses --      9.0443                 2.1369                 3.4855
 Frc consts  --      3.3050                 0.8051                 1.3395
 IR Inten    --    149.7856                15.5338                13.1364

                     31                     32                     33
                      A                      A                      A
 Frequencies --    879.9306               928.9120               964.7820
 Red. masses --      1.2454                 3.0413                 1.4667
 Frc consts  --      0.5681                 1.5462                 0.8044
 IR Inten    --      0.2613                43.6964                 1.1345

                     34                     35                     36
                      A                      A                      A
 Frequencies --   1015.6897              1021.4071              1025.3651
 Red. masses --      1.4033                 1.6925                 4.0880
 Frc consts  --      0.8530                 1.0403                 2.5323
 IR Inten    --      5.6892                48.7701                 5.4988

                     37                     38                     39
                      A                      A                      A
 Frequencies --   1028.3327              1032.3551              1051.1352
 Red. masses --      1.3402                 1.3115                 1.4717
 Frc consts  --      0.8350                 0.8235                 0.9581
 IR Inten    --     54.8415                 3.3884                35.8881

                     40                     41                     42
                      A                      A                      A
 Frequencies --   1060.7413              1063.4285              1090.2094
 Red. masses --      1.6987                 2.4415                 1.5318
 Frc consts  --      1.1262                 1.6268                 1.0727
 IR Inten    --    164.2955                14.1024                99.1483

                     43                     44                     45
                      A                      A                      A
 Frequencies --   1100.5304              1119.1889              1129.1446
 Red. masses --      2.3239                 1.7992                 1.8020
 Frc consts  --      1.6583                 1.3278                 1.3537
 IR Inten    --     43.4503                15.7970                 9.4346

                     46                     47                     48
                      A                      A                      A
 Frequencies --   1186.5048              1217.5924              1222.4603
 Red. masses --      1.1284                 1.2760                 1.2165
 Frc consts  --      0.9360                 1.1146                 1.0711
 IR Inten    --      0.4942                31.7728                19.1493

                     49                     50                     51
                      A                      A                      A
 Frequencies --   1257.0998              1299.0099              1324.4347
 Red. masses --      2.0468                 2.8075                 3.2113
 Frc consts  --      1.9058                 2.7912                 3.3189
 IR Inten    --    142.0254               182.8310                66.8958

                     52                     53                     54
                      A                      A                      A
 Frequencies --   1343.1238              1360.8199              1368.5313
 Red. masses --      1.4138                 3.3229                 1.3876
 Frc consts  --      1.5027                 3.6255                 1.5311
 IR Inten    --     28.4536                22.4169                 3.6974

                     55                     56                     57
                      A                      A                      A
 Frequencies --   1410.6721              1456.7362              1477.4007
 Red. masses --      1.4143                 1.2265                 1.5349
 Frc consts  --      1.6582                 1.5335                 1.9739
 IR Inten    --     34.7674               105.7246               678.0529

                     58                     59                     60
                      A                      A                      A
 Frequencies --   1491.1148              1493.8576              1501.8304
 Red. masses --      1.3833                 1.3884                 1.1192
 Frc consts  --      1.8121                 1.8255                 1.4873
 IR Inten    --     88.2180                 0.4640                60.5465

                     61                     62                     63
                      A                      A                      A
 Frequencies --   1507.2185              1516.3328              1549.5875
 Red. masses --      1.0667                 1.4204                 2.3175
 Frc consts  --      1.4277                 1.9242                 3.2787
 IR Inten    --     31.4143               340.3432                10.3171

                     64                     65                     66
                      A                      A                      A
 Frequencies --   1604.3343              1625.5240              1651.9033
 Red. masses --      3.5020                 1.4018                 1.1955
 Frc consts  --      5.3108                 2.1823                 1.9221
 IR Inten    --    563.2422               311.8092                58.7468

                     67                     68                     69
                      A                      A                      A
 Frequencies --   1654.6146              1677.4710              3064.7057
 Red. masses --      3.9165                 5.8233                 1.0350
 Frc consts  --      6.3175                 9.6544                 5.7273
 IR Inten    --      8.5625                 0.0275                48.5011

                     70                     71                     72
                      A                      A                      A
 Frequencies --   3068.7916              3135.7369              3138.6321
 Red. masses --      1.0383                 1.1014                 1.1043
 Frc consts  --      5.7612                 6.3807                 6.4097
 IR Inten    --     34.8559                34.2448                15.1911

                     73                     74                     75
                      A                      A                      A
 Frequencies --   3170.5319              3180.0359              3191.8400
 Red. masses --      1.1038                 1.1015                 1.0870
 Frc consts  --      6.5376                 6.5628                 6.5246
 IR Inten    --     16.9633                 2.0391                 6.0866

                     76                     77                     78
                      A                      A                      A
 Frequencies --   3199.0258              3205.9493              3209.4371
 Red. masses --      1.0882                 1.0888                 1.0922
 Frc consts  --      6.5615                 6.5937                 6.6282
 IR Inten    --      3.0746                 4.7215                29.2527

                     79                     80                     81
                      A                      A                      A
 Frequencies --   3220.1944              3231.4497              3466.7528
 Red. masses --      1.0967                 1.0939                 1.0598
 Frc consts  --      6.7005                 6.7300                 7.5044
 IR Inten    --     26.8295                10.7356                68.2476

                     82                     83                     84
                      A                      A                      A
 Frequencies --   3587.7666              3601.9953              3717.6901
 Red. masses --      1.0890                 1.0466                 1.1013
 Frc consts  --      8.2592                 8.0002                 8.9683
 IR Inten    --     47.0272                43.5290                37.3981

 - Thermochemistry -
 -------------------
 Temperature   298.150 Kelvin.  Pressure   1.00000 Atm.
 Atom     1 has atomic number  6 and mass  12.00000

 Molecular mass:   192.12626 amu.
 Principal axes and moments of inertia in atomic units:
                           1         2         3
     Eigenvalues --  1539.316744264.854234739.00834
           X            0.99999   0.00464   0.00283
           Y           -0.00471   0.99968   0.02493
           Z           -0.00272  -0.02494   0.99969
 This molecule is an asymmetric top.
 Rotational symmetry number  1.
 Warning -- assumption of classical behavior for rotation
           may cause significant error
 Rotational temperatures (Kelvin)      0.05627     0.02031     0.01828
 Rotational constants (GHZ):           1.17243     0.42317     0.38083
    1 imaginary frequencies ignored.
 Zero-point vibrational energy     676876.7 (Joules/Mol)
                                  161.77742 (Kcal/Mol)
 Warning -- explicit consideration of  21 degrees of freedom as
           vibrations may cause significant error
 Vibrational temperatures:     76.94    93.96   119.55   135.11   168.25
          (Kelvin)            180.78   281.92   336.30   358.98   409.71
                              450.88   491.84   506.43   535.08   596.94
                              609.89   643.15   657.76   726.38   799.07
                              840.01   915.46   924.51   979.97  1025.15
                             1049.33  1133.09  1150.54  1161.99  1266.02
                             1336.50  1388.11  1461.35  1469.58  1475.27
                             1479.54  1485.33  1512.35  1526.17  1530.04
                             1568.57  1583.42  1610.26  1624.59  1707.12
                             1751.84  1758.85  1808.69  1868.99  1905.57
                             1932.46  1957.92  1969.01  2029.64  2095.92
                             2125.65  2145.38  2149.33  2160.80  2168.55
                             2181.66  2229.51  2308.28  2338.77  2376.72
                             2380.62  2413.51  4409.43  4415.31  4511.63
                             4515.79  4561.69  4575.36  4592.35  4602.68
                             4612.65  4617.66  4633.14  4649.34  4987.88
                             5162.00  5182.47  5348.93

 Zero-point correction=                           0.257809 (Hartree/Particle)
 Thermal correction to Energy=                    0.271848
 Thermal correction to Enthalpy=                  0.272792
 Thermal correction to Gibbs Free Energy=         0.217182
 Sum of electronic and zero-point Energies=           -613.286690
 Sum of electronic and thermal Energies=              -613.272650
 Sum of electronic and thermal Enthalpies=            -613.271706
 Sum of electronic and thermal Free Energies=         -613.327316

                     E (Thermal)             CV                S
                      KCal/Mol        Cal/Mol-Kelvin    Cal/Mol-Kelvin
 Total                  170.587             53.991            117.042
 Electronic               0.000              0.000              0.000
 Translational            0.889              2.981             41.664
 Rotational               0.889              2.981             31.809
 Vibrational            168.810             48.029             43.568
 Vibration     1          0.596              1.976              4.685
 Vibration     2          0.597              1.971              4.290
 Vibration     3          0.600              1.961              3.816
 Vibration     4          0.603              1.954              3.577
 Vibration     5          0.608              1.935              3.150
 Vibration     6          0.611              1.927              3.012
 Vibration     7          0.636              1.846              2.171
 Vibration     8          0.654              1.789              1.850
 Vibration     9          0.662              1.764              1.734
 Vibration    10          0.683              1.702              1.505
 Vibration    11          0.701              1.648              1.344
 Vibration    12          0.721              1.592              1.204
 Vibration    13          0.729              1.571              1.157
 Vibration    14          0.744              1.530              1.072
 Vibration    15          0.778              1.438              0.909
 Vibration    16          0.786              1.418              0.879
 Vibration    17          0.806              1.367              0.805
 Vibration    18          0.815              1.345              0.774
 Vibration    19          0.860              1.239              0.646
 Vibration    20          0.911              1.128              0.533
 Vibration    21          0.941              1.066              0.478

 Optimization completed.
    -- Stationary point found.
 Normal termination of Gaussian 16 at Sat Jan 30 13:14:59 2021.
