 Gaussian 16, Revision A.03,
 Gaussian 16:  ES64L-G16RevA.03 25-Dec-2016

 ----------------------------------------------------------------------
 # wB97XD def2tzvp, opt=(ts, noeigen, calcfc, maxcycles=70, maxstep=3),
  freq=noraman, scrf=(iefpcm, solvent=water)
 ----------------------------------------------------------------------

 ------------------------
 0_iteration/TS-938-0.out
 ------------------------
 Symbolic Z-matrix:
 Charge =  0 Multiplicity = 1

 SCF Done:  E(RwB97XD) =  -3399.61447138     A.U. after   15 cycles
 SCF Done:  E(RwB97XD) =  -3399.61390876     A.U. after   12 cycles
 SCF Done:  E(RwB97XD) =  -3399.61339716     A.U. after   12 cycles
 SCF Done:  E(RwB97XD) =  -3399.61294708     A.U. after   12 cycles
 SCF Done:  E(RwB97XD) =  -3399.61258742     A.U. after   12 cycles
 SCF Done:  E(RwB97XD) =  -3399.61238445     A.U. after   13 cycles
 SCF Done:  E(RwB97XD) =  -3399.61235144     A.U. after   12 cycles
 SCF Done:  E(RwB97XD) =  -3399.61256587     A.U. after   13 cycles
 SCF Done:  E(RwB97XD) =  -3399.61304790     A.U. after   12 cycles
 SCF Done:  E(RwB97XD) =  -3399.61361207     A.U. after   12 cycles
 SCF Done:  E(RwB97XD) =  -3399.62925159     A.U. after   11 cycles
 SCF Done:  E(RwB97XD) =  -3399.62928035     A.U. after   12 cycles
 SCF Done:  E(RwB97XD) =  -3399.62929143     A.U. after   10 cycles
 SCF Done:  E(RwB97XD) =  -3399.62929138     A.U. after   10 cycles
 SCF Done:  E(RwB97XD) =  -3399.62928442     A.U. after   10 cycles
 SCF Done:  E(RwB97XD) =  -3399.62926489     A.U. after   12 cycles
 SCF Done:  E(RwB97XD) =  -3399.62929041     A.U. after   11 cycles
 SCF Done:  E(RwB97XD) =  -3399.62929112     A.U. after   10 cycles
 SCF Done:  E(RwB97XD) =  -3399.62929169     A.U. after    8 cycles
 Optimization completed.
    -- Stationary point found.
 Normal termination of Gaussian 16 at Tue Apr 13 00:20:51 2021.

 ---------------------------------------------------------------------
 #N Geom=AllCheck Guess=TCheck SCRF=Check GenChk RwB97XD/def2TZVP Freq
 ---------------------------------------------------------------------

 Structure from the checkpoint file:  "/beegfs/scratch/user/q/tla25/Gau-217671.chk"
 ------------------------
 0_iteration/TS-938-0.out
 ------------------------
 Charge =  0 Multiplicity = 1

                         Standard orientation:
 ---------------------------------------------------------------------
 Center     Atomic      Atomic             Coordinates (Angstroms)
 Number     Number       Type             X           Y           Z
 ---------------------------------------------------------------------
      1          6           0       -1.069226    0.374093   -0.472312
      2          6           0       -2.010036   -0.656115   -0.111231
      3          8           0       -3.170100   -0.636584   -0.542495
      4          6           0        0.287605    0.366192   -0.145917
      5          6           0       -0.251153    1.884668    2.078805
      6          1           0       -1.271963    1.613116    1.810027
      7          1           0       -0.182204    2.023344    3.156151
      8          1           0        0.023675    2.806840    1.572219
      9          7           0        0.634456    0.812141    1.637406
     10          1           0        0.489573   -0.031019    2.181979
     11          1           0        1.615094    1.064107    1.710033
     12         17           0        1.269308    1.625792   -0.910798
     13         35           0        1.343833   -1.296641   -0.193034
     14          6           0       -1.638644    1.561818   -1.221222
     15          1           0       -1.350137    2.514566   -0.774777
     16          1           0       -1.328089    1.584511   -2.269580
     17          1           0       -2.723329    1.490386   -1.198979
     18          6           0       -1.673537   -1.797828    0.831243
     19          1           0       -0.916357   -1.571622    1.577855
     20          1           0       -2.594473   -2.080857    1.338222
     21          1           0       -1.324636   -2.658696    0.258523
 ---------------------------------------------------------------------

 SCF Done:  E(RwB97XD) =  -3399.62929169     A.U. after    1 cycles

 The electronic state is 1-A.
 Alpha  occ. eigenvalues -- -483.13796-101.71230 -62.68651 -56.47777 -56.47407
 Alpha  occ. eigenvalues --  -56.47395 -19.20407 -14.51006 -10.45011 -10.35635
 Alpha  occ. eigenvalues --  -10.32490 -10.27449 -10.27163 -10.26778  -9.59827
 Alpha  occ. eigenvalues --   -8.82762  -7.34494  -7.33598  -7.33553  -6.64940
 Alpha  occ. eigenvalues --   -6.63771  -6.63734  -2.75316  -2.74993  -2.74962
 Alpha  occ. eigenvalues --   -2.74018  -2.74017  -1.11282  -1.06613  -0.99268
 Alpha  occ. eigenvalues --   -0.89919  -0.87202  -0.82643  -0.80077  -0.76434
 Alpha  occ. eigenvalues --   -0.69532  -0.65296  -0.60273  -0.58806  -0.56995
 Alpha  occ. eigenvalues --   -0.55524  -0.54242  -0.51876  -0.49974  -0.49499
 Alpha  occ. eigenvalues --   -0.48783  -0.48105  -0.47617  -0.45080  -0.44238
 Alpha  occ. eigenvalues --   -0.42632  -0.41473  -0.40745  -0.38135  -0.37128
 Alpha  occ. eigenvalues --   -0.32234  -0.27690
 Alpha virt. eigenvalues --    0.02776   0.03800   0.08227   0.09741   0.13050
 Alpha virt. eigenvalues --    0.14162   0.14672   0.15705   0.16490   0.17773
 Alpha virt. eigenvalues --    0.18816   0.20014   0.20545   0.21515   0.22625

 Mulliken charges:
               1
     1  C   -0.249940
     2  C    0.252203
     3  O   -0.516085
     4  C    0.119508
     5  C   -0.301792
     6  H    0.165148
     7  H    0.172510
     8  H    0.167266
     9  N   -0.282622
    10  H    0.288073
    11  H    0.302011
    12  Cl  -0.058728
    13  Br  -0.080398
    14  C   -0.382406
    15  H    0.126356
    16  H    0.125995
    17  H    0.131882
    18  C   -0.356406
    19  H    0.092651
    20  H    0.133372
    21  H    0.151402
 Sum of Mulliken charges =  -0.00000

 Dipole moment (field-independent basis, Debye):
    X=              6.4419    Y=              2.9818    Z=              7.5048  Tot=             10.3301
 Quadrupole moment (field-independent basis, Debye-Ang):
   XX=           -101.7915   YY=            -75.5476   ZZ=            -70.6866
   XY=             -2.0691   XZ=             -2.0447   YZ=              3.8841

  Exact polarizability: 200.618   9.021 170.907  11.224  -1.434 147.340
 Approx polarizability: 160.284   5.781 139.693   8.766  -1.351 125.836

 ******    1 imaginary frequencies (negative Signs) ******

                      1                      2                      3
                      A                      A                      A
 Frequencies --   -391.2494                57.8531                75.9120
 Red. masses --      5.8752                 3.8841                 3.9948
 Frc consts  --      0.5299                 0.0077                 0.0136
 IR Inten    --    825.0328                 5.7479                 7.4000

                      4                      5                      6
                      A                      A                      A
 Frequencies --    101.7460               140.5850               146.8727
 Red. masses --      2.6261                 1.8353                 1.8140
 Frc consts  --      0.0160                 0.0214                 0.0231
 IR Inten    --      6.2789                 0.8347                 1.9112

                      7                      8                      9
                      A                      A                      A
 Frequencies --    172.6320               185.8597               205.9234
 Red. masses --      4.0651                 1.2143                 1.1268
 Frc consts  --      0.0714                 0.0247                 0.0282
 IR Inten    --      2.7297                 0.2513                 0.6129

                     10                     11                     12
                      A                      A                      A
 Frequencies --    226.9256               240.7600               270.2355
 Red. masses --      7.6354                 2.5756                 5.5749
 Frc consts  --      0.2317                 0.0880                 0.2399
 IR Inten    --      5.9627                 4.9961                15.6231

                     13                     14                     15
                      A                      A                      A
 Frequencies --    296.1600               310.4362               353.6328
 Red. masses --      4.1378                 3.4546                 3.5419
 Frc consts  --      0.2138                 0.1962                 0.2610
 IR Inten    --     11.2266                11.1183                35.3721

                     16                     17                     18
                      A                      A                      A
 Frequencies --    408.8840               476.2672               544.2529
 Red. masses --      4.9137                 4.0440                 4.8093
 Frc consts  --      0.4840                 0.5405                 0.8393
 IR Inten    --     14.1370                50.2798                99.4589

                     19                     20                     21
                      A                      A                      A
 Frequencies --    610.3502               646.2894               687.5563
 Red. masses --      3.2709                 2.6820                 1.6993
 Frc consts  --      0.7179                 0.6600                 0.4733
 IR Inten    --     29.2877                49.6951                25.7726

                     22                     23                     24
                      A                      A                      A
 Frequencies --    787.1101               835.2178               976.7957
 Red. masses --      4.8643                 3.0238                 2.0276
 Frc consts  --      1.7756                 1.2428                 1.1398
 IR Inten    --    215.2480                98.5735                 3.4604

                     25                     26                     27
                      A                      A                      A
 Frequencies --   1005.4373              1032.7545              1037.4332
 Red. masses --      1.2926                 1.3957                 1.6924
 Frc consts  --      0.7699                 0.8770                 1.0732
 IR Inten    --    252.0333               229.5071                16.1066

                     28                     29                     30
                      A                      A                      A
 Frequencies --   1056.3366              1068.0080              1081.4619
 Red. masses --      1.2356                 1.5198                 3.2853
 Frc consts  --      0.8123                 1.0214                 2.2639
 IR Inten    --     52.2994                 3.5025               110.2996

                     31                     32                     33
                      A                      A                      A
 Frequencies --   1121.1685              1240.0706              1339.8115
 Red. masses --      2.3293                 1.3746                 1.3758
 Frc consts  --      1.7251                 1.2455                 1.4551
 IR Inten    --      8.5220                45.3937                63.7731

                     34                     35                     36
                      A                      A                      A
 Frequencies --   1352.9585              1376.5720              1396.9938
 Red. masses --      3.1063                 5.1137                 1.4017
 Frc consts  --      3.3501                 5.7093                 1.6117
 IR Inten    --    719.9624               607.2712               120.0129

                     37                     38                     39
                      A                      A                      A
 Frequencies --   1407.0271              1459.3903              1462.8308
 Red. masses --      1.2906                 1.1934                 1.0786
 Frc consts  --      1.5053                 1.4975                 1.3598
 IR Inten    --    132.9662                10.0304                15.6478

                     40                     41                     42
                      A                      A                      A
 Frequencies --   1482.4080              1490.8415              1496.0584
 Red. masses --      1.0506                 1.0847                 1.0501
 Frc consts  --      1.3603                 1.4204                 1.3848
 IR Inten    --     31.9755                18.5667                 3.9582

                     43                     44                     45
                      A                      A                      A
 Frequencies --   1499.3366              1502.6505              1630.7557
 Red. masses --      1.0480                 1.0484                 6.2256
 Frc consts  --      1.3880                 1.3947                 9.7546
 IR Inten    --     52.2183                76.9980               759.0688

                     46                     47                     48
                      A                      A                      A
 Frequencies --   1639.1947              3042.2396              3073.9495
 Red. masses --      1.1486                 1.0434                 1.0382
 Frc consts  --      1.8184                 5.6899                 5.7799
 IR Inten    --     31.7835                79.8039                 8.8722

                     49                     50                     51
                      A                      A                      A
 Frequencies --   3075.8658              3102.0280              3147.1309
 Red. masses --      1.0328                 1.0972                 1.0995
 Frc consts  --      5.7571                 6.2203                 6.4159
 IR Inten    --     21.6968                41.1546                15.4896

                     52                     53                     54
                      A                      A                      A
 Frequencies --   3158.7388              3162.2446              3172.0160
 Red. masses --      1.1045                 1.0974                 1.1016
 Frc consts  --      6.4930                 6.4656                 6.5302
 IR Inten    --      4.6854                 5.6912                44.9230

                     55                     56                     57
                      A                      A                      A
 Frequencies --   3177.9433              3514.8811              3598.4286
 Red. masses --      1.1065                 1.0511                 1.0965
 Frc consts  --      6.5843                 7.6513                 8.3652
 IR Inten    --      7.2941                67.0609                69.9679

 - Thermochemistry -
 -------------------
 Temperature   298.150 Kelvin.  Pressure   1.00000 Atm.
 Atom     1 has atomic number  6 and mass  12.00000

 Molecular mass:   226.97125 amu.
 Principal axes and moments of inertia in atomic units:
                           1         2         3
     Eigenvalues --  2100.884142531.352753276.69846
           X            0.99487   0.09978   0.01652
           Y           -0.09998   0.99492   0.01164
           Z           -0.01528  -0.01323   0.99980
 This molecule is an asymmetric top.
 Rotational symmetry number  1.
 Warning -- assumption of classical behavior for rotation
           may cause significant error
 Rotational temperatures (Kelvin)      0.04123     0.03422     0.02643
 Rotational constants (GHZ):           0.85904     0.71296     0.55078
    1 imaginary frequencies ignored.
 Zero-point vibrational energy     437613.3 (Joules/Mol)
                                  104.59208 (Kcal/Mol)
 Warning -- explicit consideration of  18 degrees of freedom as
           vibrations may cause significant error
 Vibrational temperatures:     83.24   109.22   146.39   202.27   211.32
          (Kelvin)            248.38   267.41   296.28   326.50   346.40
                              388.81   426.11   446.65   508.80   588.29
                              685.24   783.06   878.16   929.87   989.24
                             1132.48  1201.69  1405.39  1446.60  1485.90
                             1492.63  1519.83  1536.63  1555.98  1613.11
                             1784.19  1927.69  1946.61  1980.58  2009.96
                             2024.40  2099.74  2104.69  2132.85  2144.99
                             2152.49  2157.21  2161.98  2346.29  2358.44
                             4377.10  4422.73  4425.48  4463.13  4528.02
                             4544.72  4549.76  4563.82  4572.35  5057.13
                             5177.34

 Zero-point correction=                           0.166678 (Hartree/Particle)
 Thermal correction to Energy=                    0.179200
 Thermal correction to Enthalpy=                  0.180144
 Thermal correction to Gibbs Free Energy=         0.127194
 Sum of electronic and zero-point Energies=          -3399.462614
 Sum of electronic and thermal Energies=             -3399.450091
 Sum of electronic and thermal Enthalpies=           -3399.449147
 Sum of electronic and thermal Free Energies=        -3399.502098

                     E (Thermal)             CV                S
                      KCal/Mol        Cal/Mol-Kelvin    Cal/Mol-Kelvin
 Total                  112.450             43.462            111.444
 Electronic               0.000              0.000              0.000
 Translational            0.889              2.981             42.161
 Rotational               0.889              2.981             31.233
 Vibrational            110.672             37.501             38.049
 Vibration     1          0.596              1.974              4.529
 Vibration     2          0.599              1.965              3.994
 Vibration     3          0.604              1.948              3.421
 Vibration     4          0.615              1.913              2.796
 Vibration     5          0.617              1.906              2.712
 Vibration     6          0.626              1.876              2.407
 Vibration     7          0.632              1.859              2.269
 Vibration     8          0.640              1.831              2.080
 Vibration     9          0.651              1.800              1.903
 Vibration    10          0.658              1.778              1.797
 Vibration    11          0.674              1.728              1.595
 Vibration    12          0.690              1.681              1.439
 Vibration    13          0.699              1.654              1.360
 Vibration    14          0.730              1.568              1.150
 Vibration    15          0.773              1.451              0.931
 Vibration    16          0.833              1.303              0.720
 Vibration    17          0.899              1.152              0.556
 Vibration    18          0.969              1.010              0.432

 Optimization completed.
    -- Stationary point found.
 Normal termination of Gaussian 16 at Tue Apr 13 00:28:25 2021.
