 Gaussian 16, Revision A.03,
 Gaussian 16:  ES64L-G16RevA.03 25-Dec-2016

 ----------------------------------------------------------------------
 # wB97XD def2tzvp, opt=(ts, noeigen, calcfc, maxcycles=70, maxstep=8),
  freq=noraman, scrf=(iefpcm, solvent=water)
 ----------------------------------------------------------------------

 ------------------------
 1_iteration/TS-971-1.out
 ------------------------
 Symbolic Z-matrix:
 Charge =  0 Multiplicity = 1

 SCF Done:  E(RwB97XD) =  -1262.38363164     A.U. after   15 cycles
 SCF Done:  E(RwB97XD) =  -1262.38363160     A.U. after    7 cycles
 Optimization completed.
    -- Stationary point found.
 Normal termination of Gaussian 16 at Sun Feb 28 12:43:12 2021.

 ---------------------------------------------------------------------
 #N Geom=AllCheck Guess=TCheck SCRF=Check GenChk RwB97XD/def2TZVP Freq
 ---------------------------------------------------------------------

 Structure from the checkpoint file:  "/beegfs/scratch/user/q/tla25/Gau-21266.chk"
 ------------------------
 1_iteration/TS-971-1.out
 ------------------------
 Charge =  0 Multiplicity = 1

                         Standard orientation:
 ---------------------------------------------------------------------
 Center     Atomic      Atomic             Coordinates (Angstroms)
 Number     Number       Type             X           Y           Z
 ---------------------------------------------------------------------
      1          6           0       -0.663380    0.252287   -0.862609
      2          6           0       -2.027993    0.152766   -0.398562
      3          8           0       -2.943873    0.735945   -0.990174
      4          6           0        0.489977   -0.193472   -0.251010
      5          6           0        0.802588    2.189733    1.100858
      6          1           0        0.743545    2.724655    2.047018
      7          1           0        1.678673    2.519356    0.548214
      8          1           0       -0.094364    2.390830    0.513350
      9          7           0        0.882636    0.750482    1.321431
     10          1           0        1.786332    0.459093    1.679343
     11          1           0        0.168929    0.440697    1.973350
     12         17           0        1.971514    0.107219   -1.156611
     13         17           0        0.566703   -1.828115    0.499217
     14          1           0       -0.528231    0.918625   -1.700993
     15          7           0       -2.308677   -0.540183    0.752441
     16          1           0       -3.287727   -0.694544    0.926848
     17          1           0       -1.690725   -1.271013    1.060794
 ---------------------------------------------------------------------

 SCF Done:  E(RwB97XD) =  -1262.38363160     A.U. after    1 cycles

 The electronic state is 1-A.
 Alpha  occ. eigenvalues -- -101.71410-101.71308 -19.20006 -14.50574 -14.43845
 Alpha  occ. eigenvalues --  -10.45517 -10.38249 -10.32248 -10.26253  -9.59994
 Alpha  occ. eigenvalues --   -9.59912  -7.34670  -7.34550  -7.33753  -7.33730
 Alpha  occ. eigenvalues --   -7.33692  -7.33659  -1.12589  -1.06681  -1.00788
 Alpha  occ. eigenvalues --   -0.99099  -0.93734  -0.85337  -0.79900  -0.71743
 Alpha  occ. eigenvalues --   -0.65797  -0.64845  -0.61808  -0.59249  -0.58058
 Alpha  occ. eigenvalues --   -0.55904  -0.55068  -0.50507  -0.49593  -0.48739
 Alpha  occ. eigenvalues --   -0.48465  -0.47110  -0.43162  -0.41955  -0.40156
 Alpha  occ. eigenvalues --   -0.39836  -0.35612  -0.33894  -0.28995
 Alpha virt. eigenvalues --    0.04307   0.06048   0.08564   0.10385   0.13930
 Alpha virt. eigenvalues --    0.14386   0.15999   0.17556   0.18665   0.18706
 Alpha virt. eigenvalues --    0.19367   0.20331   0.22320   0.24419   0.25775

 Mulliken charges:
               1
     1  C   -0.480039
     2  C    0.315470
     3  O   -0.535345
     4  C    0.179489
     5  C   -0.289422
     6  H    0.166253
     7  H    0.161297
     8  H    0.159274
     9  N   -0.299824
    10  H    0.301043
    11  H    0.288129
    12  Cl  -0.069538
    13  Cl  -0.093225
    14  H    0.152004
    15  N   -0.469172
    16  H    0.262755
    17  H    0.250851
 Sum of Mulliken charges =   0.00000

 Dipole moment (field-independent basis, Debye):
    X=              6.1003    Y=              0.4479    Z=              7.6855  Tot=              9.8224
 Quadrupole moment (field-independent basis, Debye-Ang):
   XX=            -78.7675   YY=            -64.1295   ZZ=            -63.7282
   XY=             12.0288   XZ=             -6.0237   YZ=              3.0910

  Exact polarizability: 159.978  -1.016 122.754   8.995  -7.245 123.788
 Approx polarizability: 126.721  -2.685 104.738   6.506  -8.523 108.275

 ******    1 imaginary frequencies (negative Signs) ******

                      1                      2                      3
                      A                      A                      A
 Frequencies --   -374.3017                61.8483                78.8081
 Red. masses --      5.3993                 4.0776                 5.6783
 Frc consts  --      0.4457                 0.0092                 0.0208
 IR Inten    --    620.0494                 8.0511                 9.1187

                      4                      5                      6
                      A                      A                      A
 Frequencies --     94.5904               161.6335               167.5445
 Red. masses --      1.8715                 1.6958                 2.9521
 Frc consts  --      0.0099                 0.0261                 0.0488
 IR Inten    --     11.2305                 2.6761                10.1656

                      7                      8                      9
                      A                      A                      A
 Frequencies --    195.4096               247.7866               286.0251
 Red. masses --      4.7021                 9.1831                 4.6825
 Frc consts  --      0.1058                 0.3322                 0.2257
 IR Inten    --      3.2356                 1.5269                 1.4504

                     10                     11                     12
                      A                      A                      A
 Frequencies --    311.5606               328.3068               399.7119
 Red. masses --      4.5840                 5.1086                10.5230
 Frc consts  --      0.2622                 0.3244                 0.9906
 IR Inten    --     12.6861                32.5164                 8.6029

                     13                     14                     15
                      A                      A                      A
 Frequencies --    464.8313               491.9261               543.4588
 Red. masses --      1.2107                 1.9674                 1.6394
 Frc consts  --      0.1541                 0.2805                 0.2853
 IR Inten    --    375.1201                71.5806                51.4968

                     16                     17                     18
                      A                      A                      A
 Frequencies --    589.4973               600.4542               674.3072
 Red. masses --      2.9166                 2.1305                 1.5814
 Frc consts  --      0.5972                 0.4526                 0.4236
 IR Inten    --     51.8181               107.0093                30.8248

                     19                     20                     21
                      A                      A                      A
 Frequencies --    713.7091               798.0767               868.5887
 Red. masses --      2.4326                 5.8485                 3.6050
 Frc consts  --      0.7301                 2.1947                 1.6024
 IR Inten    --     97.3887               112.7746               156.9720

                     22                     23                     24
                      A                      A                      A
 Frequencies --    946.4529              1016.1432              1066.7498
 Red. masses --      4.1025                 1.1060                 1.2513
 Frc consts  --      2.1652                 0.6728                 0.8390
 IR Inten    --     13.8337                27.0859                30.1964

                     25                     26                     27
                      A                      A                      A
 Frequencies --   1082.7176              1113.7155              1235.2570
 Red. masses --      3.6820                 1.6841                 1.3790
 Frc consts  --      2.5431                 1.2307                 1.2397
 IR Inten    --     76.9272               106.8241                75.4999

                     28                     29                     30
                      A                      A                      A
 Frequencies --   1254.5488              1345.1363              1386.4882
 Red. masses --      1.4422                 1.3026                 4.1199
 Frc consts  --      1.3374                 1.3886                 4.6663
 IR Inten    --    372.2996                 2.9024               410.5722

                     31                     32                     33
                      A                      A                      A
 Frequencies --   1440.3230              1464.5957              1494.1872
 Red. masses --      1.4764                 2.3772                 1.0442
 Frc consts  --      1.8045                 3.0044                 1.3736
 IR Inten    --    289.5326               475.6409                 4.3412

                     34                     35                     36
                      A                      A                      A
 Frequencies --   1497.2451              1618.5838              1636.2718
 Red. masses --      1.0467                 1.4177                 1.0912
 Frc consts  --      1.3825                 2.1883                 1.7214
 IR Inten    --     23.2371               429.0292                99.5778

                     37                     38                     39
                      A                      A                      A
 Frequencies --   1662.8325              3071.2540              3152.2686
 Red. masses --      3.9563                 1.0344                 1.1029
 Frc consts  --      6.4452                 5.7489                 6.4572
 IR Inten    --    873.4701                26.9025                 2.8799

                     40                     41                     42
                      A                      A                      A
 Frequencies --   3179.6611              3235.8560              3510.1550
 Red. masses --      1.1063                 1.0885                 1.0508
 Frc consts  --      6.5899                 6.7153                 7.6284
 IR Inten    --      8.1044                 0.8798                59.7091

                     43                     44                     45
                      A                      A                      A
 Frequencies --   3594.6504              3601.6965              3716.4547
 Red. masses --      1.0971                 1.0465                 1.1019
 Frc consts  --      8.3526                 7.9988                 8.9672
 IR Inten    --     79.5659                38.8267               104.4755

 - Thermochemistry -
 -------------------
 Temperature   298.150 Kelvin.  Pressure   1.00000 Atm.
 Atom     1 has atomic number  6 and mass  12.00000

 Molecular mass:   170.00137 amu.
 Principal axes and moments of inertia in atomic units:
                           1         2         3
     Eigenvalues --  1302.402192152.388072419.39394
           X            0.99883   0.04600   0.01512
           Y           -0.04733   0.99343   0.10416
           Z           -0.01023  -0.10475   0.99445
 This molecule is an asymmetric top.
 Rotational symmetry number  1.
 Warning -- assumption of classical behavior for rotation
           may cause significant error
 Rotational temperatures (Kelvin)      0.06650     0.04024     0.03580
 Rotational constants (GHZ):           1.38570     0.83848     0.74595
    1 imaginary frequencies ignored.
 Zero-point vibrational energy     337354.8 (Joules/Mol)
                                   80.62973 (Kcal/Mol)
 Warning -- explicit consideration of  16 degrees of freedom as
           vibrations may cause significant error
 Vibrational temperatures:     88.99   113.39   136.09   232.55   241.06
          (Kelvin)            281.15   356.51   411.53   448.27   472.36
                              575.10   668.79   707.77   781.92   848.16
                              863.92   970.18  1026.87  1148.25  1249.71
                             1361.73  1462.00  1534.82  1557.79  1602.39
                             1777.26  1805.02  1935.35  1994.85  2072.30
                             2107.23  2149.80  2154.20  2328.78  2354.23
                             2392.45  4418.85  4535.41  4574.82  4655.68
                             5050.33  5171.90  5182.04  5347.15

 Zero-point correction=                           0.128492 (Hartree/Particle)
 Thermal correction to Energy=                    0.139095
 Thermal correction to Enthalpy=                  0.140039
 Thermal correction to Gibbs Free Energy=         0.091595
 Sum of electronic and zero-point Energies=          -1262.255140
 Sum of electronic and thermal Energies=             -1262.244537
 Sum of electronic and thermal Enthalpies=           -1262.243593
 Sum of electronic and thermal Free Energies=        -1262.292037

                     E (Thermal)             CV                S
                      KCal/Mol        Cal/Mol-Kelvin    Cal/Mol-Kelvin
 Total                   87.283             37.124            101.960
 Electronic               0.000              0.000              0.000
 Translational            0.889              2.981             41.300
 Rotational               0.889              2.981             30.296
 Vibrational             85.506             31.163             30.364
 Vibration     1          0.597              1.973              4.397
 Vibration     2          0.600              1.963              3.920
 Vibration     3          0.603              1.953              3.563
 Vibration     4          0.622              1.889              2.531
 Vibration     5          0.624              1.882              2.463
 Vibration     6          0.636              1.846              2.176
 Vibration     7          0.661              1.766              1.746
 Vibration     8          0.684              1.700              1.497
 Vibration     9          0.700              1.652              1.354
 Vibration    10          0.712              1.619              1.268
 Vibration    11          0.766              1.471              0.964
 Vibration    12          0.822              1.328              0.752
 Vibration    13          0.848              1.268              0.679
 Vibration    14          0.899              1.154              0.558
 Vibration    15          0.947              1.054              0.468
 Vibration    16          0.959              1.031              0.449

 Optimization completed.
    -- Stationary point found.
 Normal termination of Gaussian 16 at Sun Feb 28 12:52:55 2021.
