 Gaussian 16, Revision A.03,
 Gaussian 16:  ES64L-G16RevA.03 25-Dec-2016

 ----------------------------------------------------------------------
 # wB97XD def2tzvp, opt=(ts, noeigen, calcfc, maxcycles=70, maxstep=1),
  freq=noraman, scrf=(iefpcm, solvent=water)
 ----------------------------------------------------------------------

 ------------------------
 0_iteration/TS-969-0.out
 ------------------------
 Symbolic Z-matrix:
 Charge =  0 Multiplicity = 1

 SCF Done:  E(RwB97XD) =  -1206.99475798     A.U. after   15 cycles
 SCF Done:  E(RwB97XD) =  -1206.99473915     A.U. after   10 cycles
 SCF Done:  E(RwB97XD) =  -1206.99472322     A.U. after   10 cycles
 SCF Done:  E(RwB97XD) =  -1206.99471026     A.U. after   10 cycles
 SCF Done:  E(RwB97XD) =  -1206.99470043     A.U. after   10 cycles
 SCF Done:  E(RwB97XD) =  -1206.99469413     A.U. after   10 cycles
 SCF Done:  E(RwB97XD) =  -1206.99469260     A.U. after   10 cycles
 SCF Done:  E(RwB97XD) =  -1206.99469990     A.U. after   10 cycles
 SCF Done:  E(RwB97XD) =  -1206.99472083     A.U. after   11 cycles
 SCF Done:  E(RwB97XD) =  -1206.99475731     A.U. after   11 cycles
 SCF Done:  E(RwB97XD) =  -1206.99712401     A.U. after   10 cycles
 SCF Done:  E(RwB97XD) =  -1206.99717104     A.U. after   10 cycles
 SCF Done:  E(RwB97XD) =  -1206.99720882     A.U. after   10 cycles
 SCF Done:  E(RwB97XD) =  -1206.99723731     A.U. after   10 cycles
 SCF Done:  E(RwB97XD) =  -1206.99725841     A.U. after   10 cycles
 SCF Done:  E(RwB97XD) =  -1206.99727290     A.U. after   10 cycles
 SCF Done:  E(RwB97XD) =  -1206.99728054     A.U. after   10 cycles
 SCF Done:  E(RwB97XD) =  -1206.99728196     A.U. after   10 cycles
 SCF Done:  E(RwB97XD) =  -1206.99728198     A.U. after    7 cycles
 Optimization completed.
    -- Stationary point found.
 Normal termination of Gaussian 16 at Sat Feb 27 20:22:02 2021.

 ---------------------------------------------------------------------
 #N Geom=AllCheck Guess=TCheck SCRF=Check GenChk RwB97XD/def2TZVP Freq
 ---------------------------------------------------------------------

 Structure from the checkpoint file:  "/beegfs/scratch/user/q/tla25/Gau-106462.chk"
 ------------------------
 0_iteration/TS-969-0.out
 ------------------------
 Charge =  0 Multiplicity = 1

                         Standard orientation:
 ---------------------------------------------------------------------
 Center     Atomic      Atomic             Coordinates (Angstroms)
 Number     Number       Type             X           Y           Z
 ---------------------------------------------------------------------
      1          6           0        0.886633   -0.679731   -0.550351
      2          6           0        2.129226   -0.433365    0.093458
      3          8           0        3.231025   -0.701594   -0.381520
      4          6           0       -0.344650   -0.328617   -0.038358
      5          6           0        0.192601    2.421120   -0.451676
      6          1           0       -0.010000    3.359786   -0.966513
      7          1           0        0.301855    2.611363    0.614089
      8          1           0        1.120582    1.998983   -0.839271
      9          7           0       -0.875747    1.456609   -0.662168
     10          1           0       -1.740162    1.728773   -0.206987
     11          1           0       -1.064343    1.317750   -1.648591
     12         17           0       -1.745801   -1.176539   -0.692514
     13         17           0       -0.517990   -0.022530    1.684231
     14          1           0        0.902199   -1.113473   -1.541975
     15          1           0        2.073490    0.021039    1.098969
 ---------------------------------------------------------------------

 SCF Done:  E(RwB97XD) =  -1206.99728198     A.U. after    1 cycles

 The electronic state is 1-A.
 Alpha  occ. eigenvalues -- -101.71757-101.71505 -19.21720 -14.49262 -10.45609
 Alpha  occ. eigenvalues --  -10.35566 -10.32045 -10.27183  -9.60339  -9.60091
 Alpha  occ. eigenvalues --   -7.35012  -7.34761  -7.34099  -7.34074  -7.33854
 Alpha  occ. eigenvalues --   -7.33824  -1.11992  -1.05731  -1.01084  -0.94221
 Alpha  occ. eigenvalues --   -0.86433  -0.79416  -0.72084  -0.65076  -0.63750
 Alpha  occ. eigenvalues --   -0.58514  -0.58335  -0.56591  -0.55310  -0.50479
 Alpha  occ. eigenvalues --   -0.48845  -0.48744  -0.48121  -0.46504  -0.43577
 Alpha  occ. eigenvalues --   -0.42185  -0.40314  -0.39068  -0.33041  -0.30045
 Alpha virt. eigenvalues --    0.02123   0.05903   0.09495   0.10840   0.13312
 Alpha virt. eigenvalues --    0.14532   0.15686   0.17704   0.18062   0.19081
 Alpha virt. eigenvalues --    0.20401   0.22550   0.23579   0.24985   0.27567

 Mulliken charges:
               1
     1  C   -0.356558
     2  C    0.132429
     3  O   -0.485971
     4  C    0.169639
     5  C   -0.308427
     6  H    0.166342
     7  H    0.159856
     8  H    0.160661
     9  N   -0.342210
    10  H    0.295690
    11  H    0.288622
    12  Cl  -0.060305
    13  Cl  -0.052602
    14  H    0.149502
    15  H    0.083333
 Sum of Mulliken charges =  -0.00000

 Dipole moment (field-independent basis, Debye):
    X=             -7.4446    Y=              6.4699    Z=             -0.9976  Tot=              9.9135
 Quadrupole moment (field-independent basis, Debye-Ang):
   XX=            -81.6415   YY=            -54.7034   ZZ=            -57.9220
   XY=              1.6112   XZ=              5.7413   YZ=             -3.0747

  Exact polarizability: 160.495 -13.493 115.584   0.609   4.982 108.788
 Approx polarizability: 128.831  -8.642  95.543  -0.181   4.992  96.437

 ******    1 imaginary frequencies (negative Signs) ******

                      1                      2                      3
                      A                      A                      A
 Frequencies --   -346.0063                66.8635                97.4318
 Red. masses --      5.8582                 2.3077                 3.5951
 Frc consts  --      0.4132                 0.0061                 0.0201
 IR Inten    --    823.0679                 0.1615                 3.7537

                      4                      5                      6
                      A                      A                      A
 Frequencies --    150.4371               165.5346               195.0531
 Red. masses --      1.6444                 4.8612                 3.1780
 Frc consts  --      0.0219                 0.0785                 0.0712
 IR Inten    --      1.9812                 7.2302                 0.9920

                      7                      8                      9
                      A                      A                      A
 Frequencies --    207.5515               238.1038               293.3856
 Red. masses --      2.0522                 6.0158                 3.8395
 Frc consts  --      0.0521                 0.2009                 0.1947
 IR Inten    --      9.1323                10.9348                 7.8335

                     10                     11                     12
                      A                      A                      A
 Frequencies --    300.6632               402.0955               439.8708
 Red. masses --      5.5080                 8.6347                 7.7454
 Frc consts  --      0.2934                 0.8225                 0.8830
 IR Inten    --     18.1804                23.1378                18.8854

                     13                     14                     15
                      A                      A                      A
 Frequencies --    508.9243               636.0457               721.1096
 Red. masses --      5.0078                 1.9161                 1.8450
 Frc consts  --      0.7642                 0.4567                 0.5653
 IR Inten    --     98.3236                 2.1006               116.4381

                     16                     17                     18
                      A                      A                      A
 Frequencies --    779.3863               843.9737               993.3009
 Red. masses --      1.5449                 6.8544                 1.0743
 Frc consts  --      0.5529                 2.8766                 0.6245
 IR Inten    --    151.4539               248.2592                31.6399

                     19                     20                     21
                      A                      A                      A
 Frequencies --   1032.2431              1038.1920              1084.5143
 Red. masses --      1.1814                 1.5571                 4.9142
 Frc consts  --      0.7417                 0.9888                 3.4055
 IR Inten    --     73.3902                19.5041                26.2387

                     22                     23                     24
                      A                      A                      A
 Frequencies --   1204.8237              1215.3547              1252.5695
 Red. masses --      2.1953                 1.4244                 1.9515
 Frc consts  --      1.8776                 1.2396                 1.8040
 IR Inten    --    348.9441                32.6596               220.1474

                     25                     26                     27
                      A                      A                      A
 Frequencies --   1341.0307              1379.8462              1451.6382
 Red. masses --      1.3269                 1.5961                 1.1996
 Frc consts  --      1.4060                 1.7905                 1.4894
 IR Inten    --      0.0694               549.2584                32.2871

                     28                     29                     30
                      A                      A                      A
 Frequencies --   1491.4940              1497.3689              1501.8319
 Red. masses --      1.0426                 1.7956                 1.2792
 Frc consts  --      1.3665                 2.3720                 1.7000
 IR Inten    --     39.3754               356.1635               167.4279

                     31                     32                     33
                      A                      A                      A
 Frequencies --   1639.8793              1680.8362              2954.0893
 Red. masses --      1.0909                 7.4605                 1.0825
 Frc consts  --      1.7285                12.4186                 5.5658
 IR Inten    --     66.9140              1058.0629                99.0591

                     34                     35                     36
                      A                      A                      A
 Frequencies --   3068.2337              3144.7659              3167.6006
 Red. masses --      1.0332                 1.1042                 1.1055
 Frc consts  --      5.7310                 6.4340                 6.5356
 IR Inten    --     22.1419                 6.7684                10.0636

                     37                     38                     39
                      A                      A                      A
 Frequencies --   3208.6858              3518.3988              3605.5930
 Red. masses --      1.0891                 1.0503                 1.0974
 Frc consts  --      6.6065                 7.6602                 8.4059
 IR Inten    --      0.2418                74.1979                59.1309

 - Thermochemistry -
 -------------------
 Temperature   298.150 Kelvin.  Pressure   1.00000 Atm.
 Atom     1 has atomic number  6 and mass  12.00000

 Molecular mass:   154.99047 amu.
 Principal axes and moments of inertia in atomic units:
                           1         2         3
     Eigenvalues --  1184.813191816.026072012.13507
           X            0.99971  -0.02213   0.00940
           Y            0.02292   0.99525  -0.09459
           Z           -0.00726   0.09478   0.99547
 This molecule is an asymmetric top.
 Rotational symmetry number  1.
 Warning -- assumption of classical behavior for rotation
           may cause significant error
 Rotational temperatures (Kelvin)      0.07310     0.04769     0.04305
 Rotational constants (GHZ):           1.52323     0.99379     0.89693
    1 imaginary frequencies ignored.
 Zero-point vibrational energy     290206.4 (Joules/Mol)
                                   69.36099 (Kcal/Mol)
 Warning -- explicit consideration of  12 degrees of freedom as
           vibrations may cause significant error
 Vibrational temperatures:     96.20   140.18   216.45   238.17   280.64
          (Kelvin)            298.62   342.58   422.12   432.59   578.53
                              632.88   732.23   915.13  1037.52  1121.36
                             1214.29  1429.14  1485.17  1493.73  1560.37
                             1733.47  1748.62  1802.17  1929.44  1985.29
                             2088.58  2145.93  2154.38  2160.80  2359.42
                             2418.35  4250.28  4414.50  4524.62  4557.47
                             4616.58  5062.19  5187.64

 Zero-point correction=                           0.110534 (Hartree/Particle)
 Thermal correction to Energy=                    0.120046
 Thermal correction to Enthalpy=                  0.120990
 Thermal correction to Gibbs Free Energy=         0.075028
 Sum of electronic and zero-point Energies=          -1206.886748
 Sum of electronic and thermal Energies=             -1206.877236
 Sum of electronic and thermal Enthalpies=           -1206.876292
 Sum of electronic and thermal Free Energies=        -1206.922254

                     E (Thermal)             CV                S
                      KCal/Mol        Cal/Mol-Kelvin    Cal/Mol-Kelvin
 Total                   75.330             32.150             96.737
 Electronic               0.000              0.000              0.000
 Translational            0.889              2.981             41.024
 Rotational               0.889              2.981             29.850
 Vibrational             73.553             26.188             25.863
 Vibration     1          0.598              1.970              4.244
 Vibration     2          0.603              1.951              3.505
 Vibration     3          0.618              1.902              2.667
 Vibration     4          0.624              1.885              2.486
 Vibration     5          0.636              1.847              2.179
 Vibration     6          0.641              1.829              2.065
 Vibration     7          0.656              1.782              1.817
 Vibration     8          0.688              1.686              1.454
 Vibration     9          0.693              1.672              1.413
 Vibration    10          0.768              1.466              0.955
 Vibration    11          0.800              1.383              0.827
 Vibration    12          0.864              1.230              0.636

 Optimization completed.
    -- Stationary point found.
 Normal termination of Gaussian 16 at Sat Feb 27 20:29:50 2021.
