 Gaussian 16, Revision A.03,
 Gaussian 16:  ES64L-G16RevA.03 25-Dec-2016

 ----------------------------------------------------------------------
 # wB97XD def2tzvp, opt=(ts, noeigen, calcfc, maxcycles=70, maxstep=3),
  freq=noraman, scrf=(iefpcm, solvent=water)
 ----------------------------------------------------------------------

 ------------------------
 0_iteration/TS-906-0.out
 ------------------------
 Symbolic Z-matrix:
 Charge =  0 Multiplicity = 1

 SCF Done:  E(RwB97XD) =  -3399.62569087     A.U. after   15 cycles
 SCF Done:  E(RwB97XD) =  -3399.62544216     A.U. after   12 cycles
 SCF Done:  E(RwB97XD) =  -3399.62525135     A.U. after   12 cycles
 SCF Done:  E(RwB97XD) =  -3399.62513384     A.U. after   13 cycles
 SCF Done:  E(RwB97XD) =  -3399.62511923     A.U. after   13 cycles
 SCF Done:  E(RwB97XD) =  -3399.62534126     A.U. after   13 cycles
 SCF Done:  E(RwB97XD) =  -3399.62597876     A.U. after   14 cycles
 SCF Done:  E(RwB97XD) =  -3399.62689684     A.U. after   14 cycles
 SCF Done:  E(RwB97XD) =  -3399.62802669     A.U. after   14 cycles
 SCF Done:  E(RwB97XD) =  -3399.62922116     A.U. after   14 cycles
 SCF Done:  E(RwB97XD) =  -3399.64902275     A.U. after   11 cycles
 SCF Done:  E(RwB97XD) =  -3399.64901475     A.U. after   11 cycles
 SCF Done:  E(RwB97XD) =  -3399.64901469     A.U. after   12 cycles
 SCF Done:  E(RwB97XD) =  -3399.64902502     A.U. after   11 cycles
 SCF Done:  E(RwB97XD) =  -3399.64907344     A.U. after   11 cycles
 SCF Done:  E(RwB97XD) =  -3399.64909469     A.U. after   11 cycles
 SCF Done:  E(RwB97XD) =  -3399.64910358     A.U. after   10 cycles
 SCF Done:  E(RwB97XD) =  -3399.64910429     A.U. after   10 cycles
 SCF Done:  E(RwB97XD) =  -3399.64910422     A.U. after    8 cycles
 Optimization completed.
    -- Stationary point found.
 Normal termination of Gaussian 16 at Wed Apr 14 04:00:59 2021.

 ---------------------------------------------------------------------
 #N Geom=AllCheck Guess=TCheck SCRF=Check GenChk RwB97XD/def2TZVP Freq
 ---------------------------------------------------------------------

 Structure from the checkpoint file:  "/beegfs/scratch/user/q/tla25/Gau-322898.chk"
 ------------------------
 0_iteration/TS-906-0.out
 ------------------------
 Charge =  0 Multiplicity = 1

                         Standard orientation:
 ---------------------------------------------------------------------
 Center     Atomic      Atomic             Coordinates (Angstroms)
 Number     Number       Type             X           Y           Z
 ---------------------------------------------------------------------
      1          6           0        0.335068    0.266528   -0.335444
      2          6           0        1.131783    1.463526   -0.457855
      3          8           0        0.652170    2.554008   -0.773777
      4          6           0       -1.051123    0.216214   -0.465848
      5          6           0       -1.233407    1.156430    2.231761
      6          1           0       -1.393667    0.941959    3.288339
      7          1           0       -0.159698    1.204487    2.040001
      8          1           0       -1.678527    2.119115    1.990753
      9          7           0       -1.806217    0.127177    1.377173
     10          1           0       -1.554811   -0.801665    1.694543
     11          1           0       -2.816874    0.178689    1.328946
     12         17           0       -1.769176   -1.320082   -1.011880
     13          6           0       -1.850867    1.377260   -0.983183
     14          1           0       -2.912657    1.144012   -0.940097
     15          1           0       -1.634786    2.275572   -0.414256
     16          1           0       -1.573277    1.569932   -2.019438
     17         35           0        1.214619   -1.335273    0.244554
     18          6           0        2.623850    1.377516   -0.211525
     19          1           0        3.057186    2.355584   -0.407374
     20          1           0        2.832575    1.087875    0.819789
     21          1           0        3.093204    0.633240   -0.856082
 ---------------------------------------------------------------------

 SCF Done:  E(RwB97XD) =  -3399.64910422     A.U. after    1 cycles

 The electronic state is 1-A.
 Alpha  occ. eigenvalues -- -483.12531-101.70138 -62.67368 -56.46475 -56.46135
 Alpha  occ. eigenvalues --  -56.46125 -19.21324 -14.48220 -10.41081 -10.36835
 Alpha  occ. eigenvalues --  -10.31689 -10.31554 -10.28878 -10.27430  -9.58744
 Alpha  occ. eigenvalues --   -8.81482  -7.33378  -7.32538  -7.32483  -6.63604
 Alpha  occ. eigenvalues --   -6.62519  -6.62492  -2.73999  -2.73684  -2.73662
 Alpha  occ. eigenvalues --   -2.72784  -2.72784  -1.12405  -1.04168  -0.98398
 Alpha  occ. eigenvalues --   -0.91265  -0.86035  -0.83198  -0.78945  -0.78482
 Alpha  occ. eigenvalues --   -0.69527  -0.63119  -0.59971  -0.58153  -0.55806
 Alpha  occ. eigenvalues --   -0.55580  -0.54590  -0.51991  -0.50593  -0.50125
 Alpha  occ. eigenvalues --   -0.49221  -0.47610  -0.46725  -0.45186  -0.44883
 Alpha  occ. eigenvalues --   -0.43782  -0.41094  -0.39486  -0.38439  -0.36733
 Alpha  occ. eigenvalues --   -0.32528  -0.28500
 Alpha virt. eigenvalues --    0.02765   0.06032   0.10143   0.11014   0.12845
 Alpha virt. eigenvalues --    0.13106   0.14685   0.15614   0.17071   0.18223
 Alpha virt. eigenvalues --    0.19232   0.19675   0.20287   0.21280   0.21866

 Mulliken charges:
               1
     1  C   -0.237567
     2  C    0.270277
     3  O   -0.491591
     4  C    0.164786
     5  C   -0.295226
     6  H    0.159215
     7  H    0.150858
     8  H    0.158962
     9  N   -0.364967
    10  H    0.282530
    11  H    0.290011
    12  Cl  -0.099434
    13  C   -0.350536
    14  H    0.146150
    15  H    0.150167
    16  H    0.152232
    17  Br  -0.139816
    18  C   -0.359571
    19  H    0.127283
    20  H    0.141984
    21  H    0.144253
 Sum of Mulliken charges =   0.00000

 Dipole moment (field-independent basis, Debye):
    X=             -4.7438    Y=             -0.9147    Z=              5.1215  Tot=              7.0405
 Quadrupole moment (field-independent basis, Debye-Ang):
   XX=            -68.7111   YY=            -92.7220   ZZ=            -74.5666
   XY=             -3.8736   XZ=             -6.0937   YZ=              3.4498

  Exact polarizability: 185.484   7.992 174.389  -4.894  -5.501 143.806
 Approx polarizability: 143.941   3.588 148.434  -2.190  -5.210 122.515

 ******    1 imaginary frequencies (negative Signs) ******

                      1                      2                      3
                      A                      A                      A
 Frequencies --   -354.5039                51.9042                57.7034
 Red. masses --      5.5618                 3.5590                 6.1211
 Frc consts  --      0.4118                 0.0056                 0.0120
 IR Inten    --    679.4903                10.9830                 2.7289

                      4                      5                      6
                      A                      A                      A
 Frequencies --     70.7303               124.0043               146.9209
 Red. masses --      2.1451                 2.8276                 1.0990
 Frc consts  --      0.0063                 0.0256                 0.0140
 IR Inten    --      1.3816                 9.2625                 1.1994

                      7                      8                      9
                      A                      A                      A
 Frequencies --    173.7079               183.0960               190.6569
 Red. masses --     17.9211                 2.0514                 1.8101
 Frc consts  --      0.3186                 0.0405                 0.0388
 IR Inten    --      4.6810                 2.2588                 1.0504

                     10                     11                     12
                      A                      A                      A
 Frequencies --    224.3311               250.5456               290.7510
 Red. masses --      3.2863                 1.1785                 3.1006
 Frc consts  --      0.0974                 0.0436                 0.1544
 IR Inten    --     11.4618                 0.0648                21.0801

                     13                     14                     15
                      A                      A                      A
 Frequencies --    313.3584               338.0972               345.4173
 Red. masses --      3.3560                 3.3691                 5.6860
 Frc consts  --      0.1942                 0.2269                 0.3997
 IR Inten    --      8.7121                 4.6030                16.8440

                     16                     17                     18
                      A                      A                      A
 Frequencies --    384.4239               457.0349               493.6322
 Red. masses --      6.7719                 3.3864                 3.7598
 Frc consts  --      0.5896                 0.4168                 0.5398
 IR Inten    --      5.5440                 7.0089                73.7118

                     19                     20                     21
                      A                      A                      A
 Frequencies --    584.1370               618.8736               654.0302
 Red. masses --      4.0793                 2.1770                 1.7040
 Frc consts  --      0.8201                 0.4913                 0.4295
 IR Inten    --     81.6553                50.9775                30.2556

                     22                     23                     24
                      A                      A                      A
 Frequencies --    744.9801               951.0943               976.4704
 Red. masses --      3.7088                 5.6859                 1.8790
 Frc consts  --      1.2128                 3.0304                 1.0556
 IR Inten    --     84.9333                76.7030                10.8092

                     25                     26                     27
                      A                      A                      A
 Frequencies --    995.8773              1019.7511              1040.2129
 Red. masses --      1.0839                 1.1358                 1.7575
 Frc consts  --      0.6333                 0.6959                 1.1205
 IR Inten    --     34.8073                87.9098                15.8942

                     28                     29                     30
                      A                      A                      A
 Frequencies --   1047.9226              1057.0566              1087.6210
 Red. masses --      1.8089                 1.4999                 4.0412
 Frc consts  --      1.1704                 0.9874                 2.8165
 IR Inten    --     70.9646                71.5559                 4.2400

                     31                     32                     33
                      A                      A                      A
 Frequencies --   1124.9125              1209.7668              1297.1209
 Red. masses --      2.9079                 1.4043                 4.3456
 Frc consts  --      2.1681                 1.2110                 4.3078
 IR Inten    --     66.8989                18.6249               205.6695

                     34                     35                     36
                      A                      A                      A
 Frequencies --   1340.0930              1380.8699              1400.6587
 Red. masses --      1.3362                 1.6616                 1.9887
 Frc consts  --      1.4138                 1.8667                 2.2987
 IR Inten    --      9.6245               222.9176               900.4529

                     37                     38                     39
                      A                      A                      A
 Frequencies --   1425.8182              1446.3046              1453.2651
 Red. masses --      1.5316                 1.0614                 1.0686
 Frc consts  --      1.8345                 1.3082                 1.3297
 IR Inten    --    225.8967                26.7398                33.3361

                     40                     41                     42
                      A                      A                      A
 Frequencies --   1465.8922              1467.4333              1482.2136
 Red. masses --      1.1458                 1.0555                 1.1313
 Frc consts  --      1.4506                 1.3391                 1.4644
 IR Inten    --      4.6021                15.6258                36.0073

                     43                     44                     45
                      A                      A                      A
 Frequencies --   1493.0899              1509.0026              1644.0241
 Red. masses --      1.0465                 1.0304                 1.0896
 Frc consts  --      1.3746                 1.3824                 1.7351
 IR Inten    --     29.8761                18.9798                66.3867

                     46                     47                     48
                      A                      A                      A
 Frequencies --   1667.7113              3063.0976              3064.2085
 Red. masses --      9.3173                 1.0342                 1.0364
 Frc consts  --     15.2680                 5.7172                 5.7335
 IR Inten    --    422.4965                31.8128                 5.2903

                     49                     50                     51
                      A                      A                      A
 Frequencies --   3083.1637              3134.6683              3135.7338
 Red. masses --      1.0368                 1.1036                 1.1001
 Frc consts  --      5.8070                 6.3891                 6.3733
 IR Inten    --     12.9807                10.0386                12.3665

                     52                     53                     54
                      A                      A                      A
 Frequencies --   3158.3970              3167.3137              3167.6404
 Red. masses --      1.1024                 1.1045                 1.1041
 Frc consts  --      6.4790                 6.5282                 6.5273
 IR Inten    --     14.2337                18.1967                23.5651

                     55                     56                     57
                      A                      A                      A
 Frequencies --   3193.0368              3528.3419              3612.1977
 Red. masses --      1.1022                 1.0506                 1.0966
 Frc consts  --      6.6210                 7.7058                 8.4302
 IR Inten    --      2.3847                54.0198                50.8538

 - Thermochemistry -
 -------------------
 Temperature   298.150 Kelvin.  Pressure   1.00000 Atm.
 Atom     1 has atomic number  6 and mass  12.00000

 Molecular mass:   226.97125 amu.
 Principal axes and moments of inertia in atomic units:
                           1         2         3
     Eigenvalues --  2141.208932470.823973292.84120
           X            0.99386   0.10168  -0.04373
           Y           -0.10089   0.99470   0.02007
           Z            0.04554  -0.01553   0.99884
 This molecule is an asymmetric top.
 Rotational symmetry number  1.
 Warning -- assumption of classical behavior for rotation
           may cause significant error
 Rotational temperatures (Kelvin)      0.04045     0.03505     0.02630
 Rotational constants (GHZ):           0.84286     0.73042     0.54808
    1 imaginary frequencies ignored.
 Zero-point vibrational energy     436579.1 (Joules/Mol)
                                  104.34490 (Kcal/Mol)
 Warning -- explicit consideration of  19 degrees of freedom as
           vibrations may cause significant error
 Vibrational temperatures:     74.68    83.02   101.77   178.41   211.39
          (Kelvin)            249.93   263.43   274.31   322.76   360.48
                              418.33   450.85   486.45   496.98   553.10
                              657.57   710.23   840.44   890.42   941.00
                             1071.86  1368.41  1404.92  1432.85  1467.19
                             1496.63  1507.73  1520.87  1564.84  1618.50
                             1740.58  1866.27  1928.09  1986.76  2015.24
                             2051.43  2080.91  2090.92  2109.09  2111.31
                             2132.57  2148.22  2171.12  2365.38  2399.46
                             4407.11  4408.71  4435.98  4510.09  4511.62
                             4544.23  4557.06  4557.53  4594.07  5076.50
                             5197.15

 Zero-point correction=                           0.166284 (Hartree/Particle)
 Thermal correction to Energy=                    0.179007
 Thermal correction to Enthalpy=                  0.179952
 Thermal correction to Gibbs Free Energy=         0.126106
 Sum of electronic and zero-point Energies=          -3399.482820
 Sum of electronic and thermal Energies=             -3399.470097
 Sum of electronic and thermal Enthalpies=           -3399.469153
 Sum of electronic and thermal Free Energies=        -3399.522998

                     E (Thermal)             CV                S
                      KCal/Mol        Cal/Mol-Kelvin    Cal/Mol-Kelvin
 Total                  112.329             43.794            113.328
 Electronic               0.000              0.000              0.000
 Translational            0.889              2.981             42.161
 Rotational               0.889              2.981             31.233
 Vibrational            110.551             37.833             39.934
 Vibration     1          0.596              1.977              4.743
 Vibration     2          0.596              1.974              4.534
 Vibration     3          0.598              1.968              4.133
 Vibration     4          0.610              1.929              3.037
 Vibration     5          0.617              1.906              2.712
 Vibration     6          0.627              1.875              2.395
 Vibration     7          0.631              1.863              2.297
 Vibration     8          0.634              1.853              2.221
 Vibration     9          0.649              1.804              1.924
 Vibration    10          0.663              1.762              1.727
 Vibration    11          0.687              1.691              1.470
 Vibration    12          0.701              1.648              1.345
 Vibration    13          0.718              1.599              1.221
 Vibration    14          0.724              1.585              1.187
 Vibration    15          0.753              1.503              1.022
 Vibration    16          0.815              1.345              0.775
 Vibration    17          0.849              1.264              0.674
 Vibration    18          0.941              1.066              0.478
 Vibration    19          0.979              0.992              0.418

 Optimization completed.
    -- Stationary point found.
 Normal termination of Gaussian 16 at Wed Apr 14 04:08:18 2021.
