 Gaussian 16, Revision A.03,
 Gaussian 16:  ES64L-G16RevA.03 25-Dec-2016

 ----------------------------------------------------------------------
 # wB97XD def2tzvp, opt=(ts, noeigen, calcfc, maxcycles=70, maxstep=1),
  freq=noraman, scrf=(iefpcm, solvent=water)
 ----------------------------------------------------------------------

 ------------------------
 0_iteration/TS-977-0.out
 ------------------------
 Symbolic Z-matrix:
 Charge =  0 Multiplicity = 1

 SCF Done:  E(RwB97XD) =  -1246.31040736     A.U. after   15 cycles
 SCF Done:  E(RwB97XD) =  -1246.31039138     A.U. after   10 cycles
 SCF Done:  E(RwB97XD) =  -1246.31037888     A.U. after   10 cycles
 SCF Done:  E(RwB97XD) =  -1246.31036981     A.U. after   10 cycles
 SCF Done:  E(RwB97XD) =  -1246.31036428     A.U. after   10 cycles
 SCF Done:  E(RwB97XD) =  -1246.31036302     A.U. after   10 cycles
 SCF Done:  E(RwB97XD) =  -1246.31036882     A.U. after   10 cycles
 SCF Done:  E(RwB97XD) =  -1246.31038777     A.U. after   10 cycles
 SCF Done:  E(RwB97XD) =  -1246.31042136     A.U. after   10 cycles
 SCF Done:  E(RwB97XD) =  -1246.31047530     A.U. after   10 cycles
 SCF Done:  E(RwB97XD) =  -1246.31185575     A.U. after   10 cycles
 SCF Done:  E(RwB97XD) =  -1246.31189651     A.U. after   10 cycles
 SCF Done:  E(RwB97XD) =  -1246.31193863     A.U. after   10 cycles
 SCF Done:  E(RwB97XD) =  -1246.31197667     A.U. after   10 cycles
 SCF Done:  E(RwB97XD) =  -1246.31200329     A.U. after   10 cycles
 SCF Done:  E(RwB97XD) =  -1246.31202099     A.U. after   10 cycles
 SCF Done:  E(RwB97XD) =  -1246.31203142     A.U. after   11 cycles
 SCF Done:  E(RwB97XD) =  -1246.31203189     A.U. after    9 cycles
 SCF Done:  E(RwB97XD) =  -1246.31203210     A.U. after    8 cycles
 Optimization completed.
    -- Stationary point found.
 Normal termination of Gaussian 16 at Sat Feb 27 23:02:48 2021.

 ---------------------------------------------------------------------
 #N Geom=AllCheck Guess=TCheck SCRF=Check GenChk RwB97XD/def2TZVP Freq
 ---------------------------------------------------------------------

 Structure from the checkpoint file:  "/beegfs/scratch/user/q/tla25/Gau-32120.chk"
 ------------------------
 0_iteration/TS-977-0.out
 ------------------------
 Charge =  0 Multiplicity = 1

                         Standard orientation:
 ---------------------------------------------------------------------
 Center     Atomic      Atomic             Coordinates (Angstroms)
 Number     Number       Type             X           Y           Z
 ---------------------------------------------------------------------
      1          6           0        0.965877   -0.162753   -0.345176
      2          6           0        2.031976    0.536906    0.285158
      3          8           0        3.224674    0.228953    0.227162
      4          6           0       -0.347497    0.262910   -0.163254
      5          6           0       -0.782449   -1.853424    1.623112
      6          1           0        0.298008   -1.961180    1.536149
      7          1           0       -1.098501   -2.197684    2.607027
      8          1           0       -1.272648   -2.449641    0.856543
      9          7           0       -1.120831   -0.447757    1.428388
     10          1           0       -2.123795   -0.292207    1.412247
     11          1           0       -0.724289    0.128404    2.163410
     12         17           0       -1.544694   -0.348239   -1.311504
     13         17           0       -0.680872    1.964402    0.212639
     14          6           0        1.283640   -1.397215   -1.150301
     15          1           0        0.633503   -2.240266   -0.914661
     16          1           0        1.204377   -1.215057   -2.225587
     17          1           0        2.310630   -1.691076   -0.936999
     18          1           0        1.746484    1.428059    0.869325
 ---------------------------------------------------------------------

 SCF Done:  E(RwB97XD) =  -1246.31203210     A.U. after    1 cycles

 The electronic state is 1-A.
 Alpha  occ. eigenvalues -- -101.71378-101.71350 -19.21104 -14.50156 -10.45570
 Alpha  occ. eigenvalues --  -10.34683 -10.32338 -10.27472 -10.27322  -9.59971
 Alpha  occ. eigenvalues --   -9.59943  -7.34638  -7.34606  -7.33732  -7.33714
 Alpha  occ. eigenvalues --   -7.33708  -7.33675  -1.11297  -1.06383  -1.00902
 Alpha  occ. eigenvalues --   -0.93929  -0.88390  -0.79888  -0.77868  -0.71766
 Alpha  occ. eigenvalues --   -0.64607  -0.61712  -0.59048  -0.58944  -0.56176
 Alpha  occ. eigenvalues --   -0.55150  -0.50231  -0.49740  -0.49089  -0.48308
 Alpha  occ. eigenvalues --   -0.46659  -0.45955  -0.45306  -0.43267  -0.41864
 Alpha  occ. eigenvalues --   -0.39819  -0.39496  -0.32478  -0.28396
 Alpha virt. eigenvalues --    0.02854   0.05938   0.09413   0.10384   0.13222
 Alpha virt. eigenvalues --    0.14278   0.15497   0.16305   0.17327   0.18734
 Alpha virt. eigenvalues --    0.19826   0.20606   0.21663   0.23034   0.23872

 Mulliken charges:
               1
     1  C   -0.158083
     2  C    0.097523
     3  O   -0.505603
     4  C    0.138022
     5  C   -0.319833
     6  H    0.168889
     7  H    0.170135
     8  H    0.166533
     9  N   -0.304664
    10  H    0.297718
    11  H    0.289244
    12  Cl  -0.060742
    13  Cl  -0.062965
    14  C   -0.395467
    15  H    0.136457
    16  H    0.132158
    17  H    0.131650
    18  H    0.079029
 Sum of Mulliken charges =  -0.00000

 Dipole moment (field-independent basis, Debye):
    X=             -8.6576    Y=             -2.5395    Z=              4.6889  Tot=             10.1681
 Quadrupole moment (field-independent basis, Debye-Ang):
   XX=            -87.9191   YY=            -64.7808   ZZ=            -59.8831
   XY=              1.4916   XZ=             -6.5308   YZ=             -1.9227

  Exact polarizability: 180.166   4.485 131.097  -3.440   6.233 122.629
 Approx polarizability: 144.460   2.244 110.508  -0.645   5.788 105.565

 ******    1 imaginary frequencies (negative Signs) ******

                      1                      2                      3
                      A                      A                      A
 Frequencies --   -369.5714                66.8012                90.9631
 Red. masses --      6.0784                 3.9558                 2.5987
 Frc consts  --      0.4891                 0.0104                 0.0127
 IR Inten    --    953.0985                 2.1007                 2.9123

                      4                      5                      6
                      A                      A                      A
 Frequencies --    109.3792               152.6489               186.1962
 Red. masses --      1.1809                 2.5914                 3.8727
 Frc consts  --      0.0083                 0.0356                 0.0791
 IR Inten    --      0.8337                 4.6761                 4.0370

                      7                      8                      9
                      A                      A                      A
 Frequencies --    203.8003               232.8176               259.6374
 Red. masses --      3.1179                 3.6345                 1.7249
 Frc consts  --      0.0763                 0.1161                 0.0685
 IR Inten    --      4.3050                 3.9922                 6.4707

                     10                     11                     12
                      A                      A                      A
 Frequencies --    277.1550               301.1077               329.4814
 Red. masses --      3.9730                 3.1510                 4.8560
 Frc consts  --      0.1798                 0.1683                 0.3106
 IR Inten    --      5.7156                26.2267                22.5903

                     13                     14                     15
                      A                      A                      A
 Frequencies --    347.8433               389.8402               440.2405
 Red. masses --      2.8621                 6.1416                 8.9385
 Frc consts  --      0.2040                 0.5499                 1.0207
 IR Inten    --      6.8608                19.9179                 7.9497

                     16                     17                     18
                      A                      A                      A
 Frequencies --    551.5413               678.5862               738.4482
 Red. masses --      4.7412                 1.7736                 2.9418
 Frc consts  --      0.8498                 0.4812                 0.9452
 IR Inten    --    173.7082                17.0252               113.7435

                     19                     20                     21
                      A                      A                      A
 Frequencies --    843.9471               905.1336              1006.6955
 Red. masses --      5.2765                 3.5063                 1.1689
 Frc consts  --      2.2142                 1.6925                 0.6979
 IR Inten    --    232.4534                33.1290                70.9289

                     22                     23                     24
                      A                      A                      A
 Frequencies --   1027.1384              1033.6443              1054.3351
 Red. masses --      1.5628                 1.5480                 1.2055
 Frc consts  --      0.9714                 0.9745                 0.7895
 IR Inten    --     47.8015               261.8369                45.0003

                     25                     26                     27
                      A                      A                      A
 Frequencies --   1068.4513              1083.5660              1238.9801
 Red. masses --      1.4803                 3.6647                 1.3837
 Frc consts  --      0.9956                 2.5351                 1.2515
 IR Inten    --      8.6397                74.2234                28.8819

                     28                     29                     30
                      A                      A                      A
 Frequencies --   1330.0304              1343.0794              1396.7308
 Red. masses --      2.9751                 1.3310                 5.5753
 Frc consts  --      3.1008                 1.4146                 6.4083
 IR Inten    --    829.2490                18.2975               422.0074

                     31                     32                     33
                      A                      A                      A
 Frequencies --   1403.2562              1457.5133              1474.0357
 Red. masses --      1.2595                 1.1872                 1.2086
 Frc consts  --      1.4612                 1.4859                 1.5472
 IR Inten    --     59.4721                 0.4098                14.4457

                     34                     35                     36
                      A                      A                      A
 Frequencies --   1485.1306              1496.8903              1500.7747
 Red. masses --      1.0743                 1.1221                 1.0926
 Frc consts  --      1.3961                 1.4813                 1.4500
 IR Inten    --     19.5799                15.1103                87.0780

                     37                     38                     39
                      A                      A                      A
 Frequencies --   1509.7173              1639.8126              1666.0966
 Red. masses --      1.1325                 1.0895                 6.7042
 Frc consts  --      1.5208                 1.7262                10.9647
 IR Inten    --     88.1463                69.9975               966.0118

                     40                     41                     42
                      A                      A                      A
 Frequencies --   2973.0893              3044.9951              3074.8137
 Red. masses --      1.0823                 1.0420                 1.0326
 Frc consts  --      5.6364                 5.6926                 5.7523
 IR Inten    --    106.4197                58.4960                20.7511

                     43                     44                     45
                      A                      A                      A
 Frequencies --   3108.9183              3146.3161              3155.5770
 Red. masses --      1.0954                 1.1009                 1.1051
 Frc consts  --      6.2381                 6.4208                 6.4836
 IR Inten    --     35.2638                11.5694                 4.2355

                     46                     47                     48
                      A                      A                      A
 Frequencies --   3174.2210              3509.8012              3596.5282
 Red. masses --      1.1063                 1.0505                 1.0973
 Frc consts  --      6.5672                 7.6244                 8.3624
 IR Inten    --      8.1346                68.7912                62.2852

 - Thermochemistry -
 -------------------
 Temperature   298.150 Kelvin.  Pressure   1.00000 Atm.
 Atom     1 has atomic number  6 and mass  12.00000

 Molecular mass:   169.00612 amu.
 Principal axes and moments of inertia in atomic units:
                           1         2         3
     Eigenvalues --  1435.793451985.984652249.35461
           X            0.99818   0.00546  -0.06004
           Y           -0.00935   0.99786  -0.06469
           Z            0.05956   0.06514   0.99610
 This molecule is an asymmetric top.
 Rotational symmetry number  1.
 Warning -- assumption of classical behavior for rotation
           may cause significant error
 Rotational temperatures (Kelvin)      0.06032     0.04361     0.03851
 Rotational constants (GHZ):           1.25696     0.90874     0.80234
    1 imaginary frequencies ignored.
 Zero-point vibrational energy     365493.3 (Joules/Mol)
                                   87.35499 (Kcal/Mol)
 Warning -- explicit consideration of  15 degrees of freedom as
           vibrations may cause significant error
 Vibrational temperatures:     96.11   130.88   157.37   219.63   267.89
          (Kelvin)            293.22   334.97   373.56   398.76   433.23
                              474.05   500.47   560.89   633.41   793.54
                              976.33  1062.46  1214.25  1302.29  1448.41
                             1477.82  1487.18  1516.95  1537.26  1559.01
                             1782.62  1913.62  1932.39  2009.58  2018.97
                             2097.04  2120.81  2136.77  2153.69  2159.28
                             2172.15  2359.32  2397.14  4277.61  4381.07
                             4423.97  4473.04  4526.85  4540.17  4567.00
                             5049.82  5174.60

 Zero-point correction=                           0.139209 (Hartree/Particle)
 Thermal correction to Energy=                    0.150078
 Thermal correction to Enthalpy=                  0.151022
 Thermal correction to Gibbs Free Energy=         0.102292
 Sum of electronic and zero-point Energies=          -1246.172823
 Sum of electronic and thermal Energies=             -1246.161954
 Sum of electronic and thermal Enthalpies=           -1246.161010
 Sum of electronic and thermal Free Energies=        -1246.209740

                     E (Thermal)             CV                S
                      KCal/Mol        Cal/Mol-Kelvin    Cal/Mol-Kelvin
 Total                   94.175             37.453            102.561
 Electronic               0.000              0.000              0.000
 Translational            0.889              2.981             41.282
 Rotational               0.889              2.981             30.240
 Vibrational             92.398             31.491             31.038
 Vibration     1          0.598              1.970              4.245
 Vibration     2          0.602              1.956              3.639
 Vibration     3          0.606              1.942              3.280
 Vibration     4          0.619              1.900              2.639
 Vibration     5          0.632              1.859              2.265
 Vibration     6          0.639              1.834              2.099
 Vibration     7          0.654              1.791              1.857
 Vibration     8          0.668              1.746              1.664
 Vibration     9          0.678              1.716              1.551
 Vibration    10          0.693              1.672              1.411
 Vibration    11          0.712              1.617              1.263
 Vibration    12          0.725              1.580              1.176
 Vibration    13          0.758              1.492              1.001
 Vibration    14          0.800              1.382              0.826
 Vibration    15          0.907              1.136              0.541

 Optimization completed.
    -- Stationary point found.
 Normal termination of Gaussian 16 at Sat Feb 27 23:13:20 2021.
