 Gaussian 16, Revision A.03,
 Gaussian 16:  ES64L-G16RevA.03 25-Dec-2016

 ----------------------------------------------------------------------
 # wB97XD def2tzvp, opt=(ts, noeigen, calcfc, maxcycles=70, maxstep=8),
  freq=noraman, scrf=(iefpcm, solvent=water)
 ----------------------------------------------------------------------

 ------------------------
 1_iteration/TS-951-1.out
 ------------------------
 Symbolic Z-matrix:
 Charge =  0 Multiplicity = 1

 SCF Done:  E(RwB97XD) =  -6181.03285595     A.U. after   15 cycles
 SCF Done:  E(RwB97XD) =  -6181.03368983     A.U. after   14 cycles
 SCF Done:  E(RwB97XD) =  -6181.03355579     A.U. after   14 cycles
 SCF Done:  E(RwB97XD) =  -6181.03407536     A.U. after   13 cycles
 SCF Done:  E(RwB97XD) =  -6181.03426223     A.U. after   12 cycles
 SCF Done:  E(RwB97XD) =  -6181.03424426     A.U. after   14 cycles
 SCF Done:  E(RwB97XD) =  -6181.03433820     A.U. after   12 cycles
 SCF Done:  E(RwB97XD) =  -6181.03434149     A.U. after   12 cycles
 SCF Done:  E(RwB97XD) =  -6181.03435827     A.U. after   12 cycles
 SCF Done:  E(RwB97XD) =  -6181.03435708     A.U. after   11 cycles
 SCF Done:  E(RwB97XD) =  -6181.03436136     A.U. after   11 cycles
 SCF Done:  E(RwB97XD) =  -6181.03436158     A.U. after    8 cycles
 SCF Done:  E(RwB97XD) =  -6181.03436167     A.U. after    7 cycles
 SCF Done:  E(RwB97XD) =  -6181.03436164     A.U. after    6 cycles
 Optimization completed.
    -- Stationary point found.
 Normal termination of Gaussian 16 at Sun Feb 28 20:03:20 2021.

 ---------------------------------------------------------------------
 #N Geom=AllCheck Guess=TCheck SCRF=Check GenChk RwB97XD/def2TZVP Freq
 ---------------------------------------------------------------------

 Structure from the checkpoint file:  "/beegfs/scratch/user/q/tla25/Gau-38659.chk"
 ------------------------
 1_iteration/TS-951-1.out
 ------------------------
 Charge =  0 Multiplicity = 1

                         Standard orientation:
 ---------------------------------------------------------------------
 Center     Atomic      Atomic             Coordinates (Angstroms)
 Number     Number       Type             X           Y           Z
 ---------------------------------------------------------------------
      1          6           0       -0.956805   -0.601891   -0.287807
      2          6           0        0.467425   -0.957596   -0.341298
      3          8           0        0.838718   -2.095808   -0.594146
      4          6           0       -1.516074    0.605482    0.096168
      5          6           0       -1.345975   -0.168268    2.772362
      6          1           0       -2.408500   -0.400807    2.776225
      7          1           0       -0.795615   -1.005918    2.345323
      8          1           0       -1.006068   -0.000708    3.793478
      9          7           0       -1.113905    1.009350    1.945026
     10          1           0       -1.684969    1.800336    2.223768
     11          1           0       -0.140728    1.293656    1.978141
     12         17           0       -3.252778    0.751282    0.159690
     13         35           0       -0.809625    2.299705   -0.643611
     14         35           0       -2.091029   -2.117703   -0.507632
     15          7           0        1.373990    0.033797   -0.034439
     16          6           0        2.773555   -0.094721   -0.005833
     17          6           0        3.422433   -1.265296    0.381454
     18          6           0        4.807955   -1.297731    0.434370
     19          6           0        5.562586   -0.177798    0.117444
     20          6           0        4.913981    0.990792   -0.255664
     21          6           0        3.531702    1.032887   -0.320781
     22          1           0        1.054016    0.984632   -0.114786
     23          1           0        2.845942   -2.140160    0.636457
     24          1           0        5.300545   -2.214064    0.735196
     25          1           0        6.643193   -0.213880    0.163734
     26          1           0        5.484983    1.876628   -0.503586
     27          1           0        3.032284    1.947702   -0.618594
 ---------------------------------------------------------------------

 SCF Done:  E(RwB97XD) =  -6181.03436164     A.U. after    1 cycles

 The electronic state is 1-A.
 Alpha  occ. eigenvalues -- -483.15131-483.12759-101.72386 -62.69970 -62.67584
 Alpha  occ. eigenvalues --  -56.49098 -56.48727 -56.48713 -56.46716 -56.46342
 Alpha  occ. eigenvalues --  -56.46330 -19.21729 -14.50449 -14.46956 -10.46223
 Alpha  occ. eigenvalues --  -10.40387 -10.33923 -10.32985 -10.32481 -10.29227
 Alpha  occ. eigenvalues --  -10.29133 -10.29106 -10.28710 -10.28580  -9.60958
 Alpha  occ. eigenvalues --   -8.84067  -8.81698  -7.35657  -7.34717  -7.34667
 Alpha  occ. eigenvalues --   -6.66248  -6.65076  -6.65031  -6.63894  -6.62695
 Alpha  occ. eigenvalues --   -6.62664  -2.76621  -2.76301  -2.76264  -2.75318
 Alpha  occ. eigenvalues --   -2.75316  -2.74275  -2.73929  -2.73905  -2.72934
 Alpha  occ. eigenvalues --   -2.72934  -1.15118  -1.06339  -1.04617  -1.00779
 Alpha  occ. eigenvalues --   -0.95891  -0.91827  -0.90280  -0.85574  -0.85342
 Alpha  occ. eigenvalues --   -0.81687  -0.79926  -0.74421  -0.71922  -0.69042
 Alpha  occ. eigenvalues --   -0.65990  -0.64656  -0.62984  -0.60399  -0.58883
 Alpha  occ. eigenvalues --   -0.58239  -0.56314  -0.54815  -0.54464  -0.52641
 Alpha  occ. eigenvalues --   -0.52321  -0.51766  -0.50730  -0.49007  -0.48938
 Alpha  occ. eigenvalues --   -0.47216  -0.46712  -0.44898  -0.43443  -0.42948
 Alpha  occ. eigenvalues --   -0.41644  -0.40710  -0.39587  -0.38880  -0.38390
 Alpha  occ. eigenvalues --   -0.37312  -0.34754  -0.33627  -0.31186  -0.28358
 Alpha virt. eigenvalues --    0.00221   0.02672   0.04886   0.05210   0.06586
 Alpha virt. eigenvalues --    0.09958   0.12674   0.13222   0.13785   0.14658
 Alpha virt. eigenvalues --    0.15445   0.15904   0.16781   0.17825   0.18279

 Mulliken charges:
               1
     1  C   -0.249110
     2  C    0.359183
     3  O   -0.480526
     4  C    0.090648
     5  C   -0.293363
     6  H    0.163503
     7  H    0.162828
     8  H    0.169882
     9  N   -0.320670
    10  H    0.302428
    11  H    0.290348
    12  Cl  -0.014974
    13  Br  -0.064515
    14  Br  -0.100056
    15  N   -0.283288
    16  C    0.296499
    17  C   -0.299429
    18  C   -0.093521
    19  C   -0.187402
    20  C   -0.104094
    21  C   -0.288292
    22  H    0.215171
    23  H    0.150292
    24  H    0.143704
    25  H    0.142416
    26  H    0.144624
    27  H    0.147714
 Sum of Mulliken charges =  -0.00000

 Dipole moment (field-independent basis, Debye):
    X=             -0.8384    Y=              7.9557    Z=              7.4980  Tot=             10.9643
 Quadrupole moment (field-independent basis, Debye-Ang):
   XX=           -120.9103   YY=           -128.7821   ZZ=           -115.5346
   XY=              0.4996   XZ=             -6.7327   YZ=             -1.2862

  Exact polarizability: 328.302   1.803 297.867  -5.090  -4.275 203.894
 Approx polarizability: 249.255   2.607 249.292  -2.474  -3.383 176.492

 ******    1 imaginary frequencies (negative Signs) ******

                      1                      2                      3
                      A                      A                      A
 Frequencies --   -376.8509                26.4707                28.7040
 Red. masses --      5.6021                 4.2827                 5.3129
 Frc consts  --      0.4688                 0.0018                 0.0026
 IR Inten    --    663.2848                 2.1871                 1.4865

                      4                      5                      6
                      A                      A                      A
 Frequencies --     53.0061                64.5787                70.8365
 Red. masses --     10.2915                 6.3039                 2.8828
 Frc consts  --      0.0170                 0.0155                 0.0085
 IR Inten    --      6.7571                 0.2815                 2.1486

                      7                      8                      9
                      A                      A                      A
 Frequencies --     85.6506               123.3333               142.7493
 Red. masses --      8.1075                 3.3785                 4.4039
 Frc consts  --      0.0350                 0.0303                 0.0529
 IR Inten    --      5.7476                 8.0696                 3.2484

                     10                     11                     12
                      A                      A                      A
 Frequencies --    160.0051               168.0621               196.9479
 Red. masses --      5.3172                 1.7522                 4.8807
 Frc consts  --      0.0802                 0.0292                 0.1115
 IR Inten    --      3.4699                 2.2400                 5.6700

                     13                     14                     15
                      A                      A                      A
 Frequencies --    218.4749               231.3406               248.1790
 Red. masses --      9.2672                 9.4419                 8.5182
 Frc consts  --      0.2606                 0.2977                 0.3091
 IR Inten    --      0.5684                 4.9443                24.3824

                     16                     17                     18
                      A                      A                      A
 Frequencies --    263.6022               278.6642               313.7082
 Red. masses --      4.8888                 4.4734                 5.1468
 Frc consts  --      0.2001                 0.2047                 0.2984
 IR Inten    --      4.1526                11.3397                 9.0895

                     19                     20                     21
                      A                      A                      A
 Frequencies --    380.2743               392.6213               424.1785
 Red. masses --      6.5335                11.2075                 2.9551
 Frc consts  --      0.5567                 1.0179                 0.3133
 IR Inten    --      8.7028                14.5628                 0.6563

                     22                     23                     24
                      A                      A                      A
 Frequencies --    514.1934               525.5009               551.8117
 Red. masses --      3.8091                 3.5527                 1.6414
 Frc consts  --      0.5934                 0.5780                 0.2945
 IR Inten    --      4.4440               127.8113               122.1612

                     25                     26                     27
                      A                      A                      A
 Frequencies --    576.1662               634.6040               656.2450
 Red. masses --      3.6375                 5.7346                 1.8008
 Frc consts  --      0.7115                 1.3607                 0.4569
 IR Inten    --     60.4248                 5.3179                35.5854

                     28                     29                     30
                      A                      A                      A
 Frequencies --    700.1764               719.0887               756.3928
 Red. masses --      4.4747                 1.8842                 4.4458
 Frc consts  --      1.2925                 0.5740                 1.4986
 IR Inten    --    226.9737                58.1970                58.7478

                     31                     32                     33
                      A                      A                      A
 Frequencies --    773.8405               788.0897               855.4924
 Red. masses --      8.7057                 2.0204                 4.5922
 Frc consts  --      3.0715                 0.7393                 1.9802
 IR Inten    --     55.5727                86.5491                46.3229

                     34                     35                     36
                      A                      A                      A
 Frequencies --    862.4818               912.4276               941.9640
 Red. masses --      1.3006                 4.2015                 1.6265
 Frc consts  --      0.5700                 2.0609                 0.8503
 IR Inten    --      0.1514                24.0963                 5.9773

                     37                     38                     39
                      A                      A                      A
 Frequencies --   1004.3116              1004.6299              1021.0707
 Red. masses --      1.1043                 1.3532                 1.7912
 Frc consts  --      0.6563                 0.8047                 1.1003
 IR Inten    --     18.5989                 0.2108                 1.2588

                     40                     41                     42
                      A                      A                      A
 Frequencies --   1022.1438              1031.0961              1047.9811
 Red. masses --      2.6257                 4.5450                 1.2188
 Frc consts  --      1.6163                 2.8470                 0.7886
 IR Inten    --      0.0479                 8.9502                70.0568

                     43                     44                     45
                      A                      A                      A
 Frequencies --   1065.4716              1077.2133              1122.2530
 Red. masses --      2.0594                 4.9312                 1.5367
 Frc consts  --      1.3775                 3.3714                 1.1403
 IR Inten    --     18.0679                59.4768                13.1310

                     46                     47                     48
                      A                      A                      A
 Frequencies --   1183.2093              1210.6180              1225.9321
 Red. masses --      1.1261                 1.1258                 1.4708
 Frc consts  --      0.9289                 0.9721                 1.3024
 IR Inten    --      3.9282                14.9210                63.1926

                     49                     50                     51
                      A                      A                      A
 Frequencies --   1247.1891              1279.8564              1338.0336
 Red. masses --      3.2072                 3.2972                 3.4940
 Frc consts  --      2.9393                 3.1821                 3.6855
 IR Inten    --    795.2617                72.8764               358.7171

                     52                     53                     54
                      A                      A                      A
 Frequencies --   1343.3059              1363.8745              1394.1602
 Red. masses --      1.4750                 1.4939                 6.3724
 Frc consts  --      1.5682                 1.6373                 7.2976
 IR Inten    --     57.4569                21.1941               741.8629

                     55                     56                     57
                      A                      A                      A
 Frequencies --   1459.7234              1481.6627              1492.6714
 Red. masses --      1.2120                 2.1027                 1.0469
 Frc consts  --      1.5216                 2.7198                 1.3744
 IR Inten    --     15.4430               185.6737                29.9034

                     58                     59                     60
                      A                      A                      A
 Frequencies --   1498.8568              1547.5372              1571.0546
 Red. masses --      1.0324                 2.3968                 1.9014
 Frc consts  --      1.3665                 3.3819                 2.7651
 IR Inten    --     12.6261               187.0832               490.5982

                     61                     62                     63
                      A                      A                      A
 Frequencies --   1634.2650              1665.4823              1673.1123
 Red. masses --      1.0933                 5.4587                 5.0830
 Frc consts  --      1.7205                 8.9212                 8.3834
 IR Inten    --     78.2826                96.6983                63.3002

                     64                     65                     66
                      A                      A                      A
 Frequencies --   1696.3106              3076.4361              3156.7088
 Red. masses --      7.9085                 1.0327                 1.1051
 Frc consts  --     13.4077                 5.7586                 6.4881
 IR Inten    --    670.3948                21.1749                 6.5072

                     67                     68                     69
                      A                      A                      A
 Frequencies --   3175.9183              3189.5701              3199.1114
 Red. masses --      1.1061                 1.0883                 1.0882
 Frc consts  --      6.5735                 6.5233                 6.5617
 IR Inten    --      8.0001                11.2865                 1.7239

                     70                     71                     72
                      A                      A                      A
 Frequencies --   3208.7793              3222.7738              3258.7161
 Red. masses --      1.0931                 1.0980                 1.0930
 Frc consts  --      6.6313                 6.7188                 6.8384
 IR Inten    --     27.0984                22.4213                 1.3419

                     73                     74                     75
                      A                      A                      A
 Frequencies --   3516.0310              3601.2445              3614.7453
 Red. masses --      1.0505                 1.0968                 1.0763
 Frc consts  --      7.6514                 8.3811                 8.2862
 IR Inten    --     72.8468                75.2079               209.6060

 - Thermochemistry -
 -------------------
 Temperature   298.150 Kelvin.  Pressure   1.00000 Atm.
 Atom     1 has atomic number  6 and mass  12.00000

 Molecular mass:   367.89266 amu.
 Principal axes and moments of inertia in atomic units:
                           1         2         3
     Eigenvalues --  4406.286389222.55185**********
           X            0.99977  -0.01777  -0.01196
           Y            0.01780   0.99984   0.00214
           Z            0.01192  -0.00235   0.99993
 This molecule is an asymmetric top.
 Rotational symmetry number  1.
 Warning -- assumption of classical behavior for rotation
           may cause significant error
 Rotational temperatures (Kelvin)      0.01966     0.00939     0.00731
 Rotational constants (GHZ):           0.40958     0.19569     0.15239
    1 imaginary frequencies ignored.
 Zero-point vibrational energy     523742.6 (Joules/Mol)
                                  125.17748 (Kcal/Mol)
 Warning -- explicit consideration of  24 degrees of freedom as
           vibrations may cause significant error
 Vibrational temperatures:     38.09    41.30    76.26    92.91   101.92
          (Kelvin)            123.23   177.45   205.38   230.21   241.80
                              283.36   314.34   332.85   357.07   379.26
                              400.94   451.36   547.13   564.89   610.30
                              739.81   756.08   793.93   828.97   913.05
                              944.19  1007.40  1034.61  1088.28  1113.38
                             1133.89  1230.86  1240.92  1312.78  1355.28
                             1444.98  1445.44  1469.09  1470.64  1483.52
                             1507.81  1532.98  1549.87  1614.67  1702.37
                             1741.81  1763.84  1794.43  1841.43  1925.13
                             1932.72  1962.31  2005.89  2100.22  2131.78
                             2147.62  2156.52  2226.56  2260.40  2351.34
                             2396.26  2407.24  2440.61  4426.31  4541.80
                             4569.44  4589.08  4602.81  4616.72  4636.85
                             4688.57  5058.78  5181.39  5200.81

 Zero-point correction=                           0.199483 (Hartree/Particle)
 Thermal correction to Energy=                    0.216393
 Thermal correction to Enthalpy=                  0.217337
 Thermal correction to Gibbs Free Energy=         0.151309
 Sum of electronic and zero-point Energies=          -6180.834879
 Sum of electronic and thermal Energies=             -6180.817969
 Sum of electronic and thermal Enthalpies=           -6180.817025
 Sum of electronic and thermal Free Energies=        -6180.883053

                     E (Thermal)             CV                S
                      KCal/Mol        Cal/Mol-Kelvin    Cal/Mol-Kelvin
 Total                  135.789             59.440            138.968
 Electronic               0.000              0.000              0.000
 Translational            0.889              2.981             43.601
 Rotational               0.889              2.981             34.530
 Vibrational            134.011             53.478             60.837
 Vibration     1          0.593              1.985              6.078
 Vibration     2          0.593              1.984              5.917
 Vibration     3          0.596              1.976              4.702
 Vibration     4          0.597              1.971              4.312
 Vibration     5          0.598              1.968              4.130
 Vibration     6          0.601              1.959              3.757
 Vibration     7          0.610              1.930              3.047
 Vibration     8          0.616              1.910              2.767
 Vibration     9          0.622              1.891              2.550
 Vibration    10          0.625              1.882              2.457
 Vibration    11          0.636              1.844              2.161
 Vibration    12          0.646              1.813              1.972
 Vibration    13          0.653              1.793              1.869
 Vibration    14          0.662              1.766              1.743
 Vibration    15          0.670              1.740              1.638
 Vibration    16          0.679              1.713              1.542
 Vibration    17          0.702              1.648              1.343
 Vibration    18          0.750              1.512              1.038
 Vibration    19          0.760              1.486              0.990
 Vibration    20          0.786              1.418              0.878
 Vibration    21          0.869              1.219              0.624
 Vibration    22          0.880              1.194              0.597
 Vibration    23          0.907              1.136              0.540
 Vibration    24          0.933              1.083              0.493

 Optimization completed.
    -- Stationary point found.
 Normal termination of Gaussian 16 at Sun Feb 28 21:05:33 2021.
