 Gaussian 16, Revision A.03,
 Gaussian 16:  ES64L-G16RevA.03 25-Dec-2016

 ----------------------------------------------------------------------
 # wB97XD def2tzvp, opt=(ts, noeigen, calcfc, maxcycles=70, maxstep=5),
  freq=noraman, scrf=(iefpcm, solvent=water)
 ----------------------------------------------------------------------

 -----------------------
 2_iteration/TS-94-2.out
 -----------------------
 Symbolic Z-matrix:
 Charge =  0 Multiplicity = 1

 SCF Done:  E(RwB97XD) =  -692.154966879     A.U. after   15 cycles
 SCF Done:  E(RwB97XD) =  -692.154967277     A.U. after    8 cycles
 Optimization completed.
    -- Stationary point found.
 Normal termination of Gaussian 16 at Sun Jan 31 15:00:55 2021.

 ---------------------------------------------------------------------
 #N Geom=AllCheck Guess=TCheck SCRF=Check GenChk RwB97XD/def2TZVP Freq
 ---------------------------------------------------------------------

 Structure from the checkpoint file:  "/beegfs/scratch/user/q/tla25/Gau-74864.chk"
 -----------------------
 2_iteration/TS-94-2.out
 -----------------------
 Charge =  0 Multiplicity = 1

                         Standard orientation:
 ---------------------------------------------------------------------
 Center     Atomic      Atomic             Coordinates (Angstroms)
 Number     Number       Type             X           Y           Z
 ---------------------------------------------------------------------
      1          6           0       -0.894590   -0.410996    0.218706
      2          6           0       -2.229566    0.090711    0.166507
      3          8           0       -2.498755    1.319304    0.134483
      4          6           0        0.218833    0.439469    0.445073
      5          6           0        1.118582    2.788413   -1.082061
      6          1           0        1.014219    3.318799   -2.029941
      7          1           0        0.947813    3.490707   -0.269538
      8          1           0        2.133061    2.396610   -1.004374
      9          7           0        0.169502    1.685120   -0.979826
     10          1           0       -0.798072    1.982552   -0.842950
     11          1           0        0.200318    1.087182   -1.796091
     12          6           0        1.564374   -0.200458    0.226266
     13          6           0        1.797268   -0.964532   -0.918736
     14          6           0        3.027970   -1.555298   -1.147678
     15          6           0        4.058728   -1.397803   -0.230468
     16          6           0        3.843429   -0.641213    0.909534
     17          6           0        2.610034   -0.042679    1.131405
     18          1           0        1.004119   -1.099115   -1.644297
     19          1           0        3.184046   -2.139028   -2.046151
     20          1           0        5.021935   -1.859495   -0.406735
     21          1           0        4.638117   -0.509977    1.633141
     22          1           0        2.470039    0.543335    2.029048
     23          6           0        0.152284    1.423499    1.595175
     24          1           0        0.247387    0.869692    2.530619
     25          1           0        0.950418    2.164963    1.562734
     26          1           0       -0.810160    1.926692    1.594622
     27          1           0       -0.699083   -1.404172   -0.153966
     28          7           0       -3.266861   -0.816340    0.113626
     29          6           0       -3.042289   -2.241965    0.141860
     30          6           0       -4.574388   -0.397695   -0.336214
     31          1           0       -2.291881   -2.498892    0.888140
     32          1           0       -3.974063   -2.739540    0.412988
     33          1           0       -2.717700   -2.638493   -0.828834
     34          1           0       -4.625826    0.686406   -0.324635
     35          1           0       -4.777397   -0.752534   -1.354204
     36          1           0       -5.349742   -0.798295    0.321739
 ---------------------------------------------------------------------

 SCF Done:  E(RwB97XD) =  -692.154967277     A.U. after    1 cycles

 The electronic state is 1-A.
 Alpha  occ. eigenvalues --  -19.18414 -14.47220 -14.43954 -10.35801 -10.34623
 Alpha  occ. eigenvalues --  -10.31398 -10.30251 -10.30076 -10.29586 -10.29208
 Alpha  occ. eigenvalues --  -10.29186 -10.29149 -10.29126 -10.29077 -10.26974
 Alpha  occ. eigenvalues --  -10.23238  -1.10763  -1.03117  -1.01377  -0.97127
 Alpha  occ. eigenvalues --   -0.90735  -0.85422  -0.84014  -0.81666  -0.79711
 Alpha  occ. eigenvalues --   -0.78698  -0.75842  -0.71776  -0.70263  -0.65827
 Alpha  occ. eigenvalues --   -0.63062  -0.61219  -0.59990  -0.57745  -0.56236
 Alpha  occ. eigenvalues --   -0.55700  -0.55346  -0.54797  -0.54100  -0.52924
 Alpha  occ. eigenvalues --   -0.52309  -0.51026  -0.48953  -0.48118  -0.47783
 Alpha  occ. eigenvalues --   -0.47163  -0.47092  -0.46591  -0.46379  -0.45923
 Alpha  occ. eigenvalues --   -0.44434  -0.44000  -0.42622  -0.41958  -0.40842
 Alpha  occ. eigenvalues --   -0.33990  -0.33517  -0.32372  -0.30690  -0.25591
 Alpha virt. eigenvalues --    0.03018   0.05069   0.09570   0.10334   0.12276
 Alpha virt. eigenvalues --    0.13239   0.13599   0.15234   0.15360   0.16387
 Alpha virt. eigenvalues --    0.16843   0.17347   0.17906   0.18239   0.18591

 Mulliken charges:
               1
     1  C   -0.590455
     2  C    0.357527
     3  O   -0.635701
     4  C    0.363612
     5  C   -0.300579
     6  H    0.151840
     7  H    0.156741
     8  H    0.152533
     9  N   -0.303925
    10  H    0.271708
    11  H    0.262143
    12  C    0.090782
    13  C   -0.274717
    14  C   -0.154745
    15  C   -0.142992
    16  C   -0.143511
    17  C   -0.232450
    18  H    0.163184
    19  H    0.142722
    20  H    0.144644
    21  H    0.142819
    22  H    0.157449
    23  C   -0.464181
    24  H    0.143609
    25  H    0.140055
    26  H    0.160010
    27  H    0.152735
    28  N   -0.122070
    29  C   -0.302049
    30  C   -0.276469
    31  H    0.141829
    32  H    0.138408
    33  H    0.126664
    34  H    0.140314
    35  H    0.116006
    36  H    0.126509
 Sum of Mulliken charges =  -0.00000

 Dipole moment (field-independent basis, Debye):
    X=              4.5577    Y=              0.0750    Z=             -3.1964  Tot=              5.5673
 Quadrupole moment (field-independent basis, Debye-Ang):
   XX=            -95.2765   YY=            -91.8979   ZZ=            -91.6770
   XY=             10.5927   XZ=              2.8551   YZ=             -0.4603

  Exact polarizability: 310.278   4.992 228.594   3.686  10.507 212.673
 Approx polarizability: 222.253  -2.180 187.165   4.539  10.214 181.732

 ******    1 imaginary frequencies (negative Signs) ******

                      1                      2                      3
                      A                      A                      A
 Frequencies --   -384.9969                48.4088                55.3052
 Red. masses --      5.6992                 3.2431                 3.0172
 Frc consts  --      0.4977                 0.0045                 0.0054
 IR Inten    --    839.0053                 3.4527                 6.1419

                      4                      5                      6
                      A                      A                      A
 Frequencies --     66.6651                73.8405                90.2774
 Red. masses --      3.2455                 3.0664                 3.2381
 Frc consts  --      0.0085                 0.0099                 0.0155
 IR Inten    --      0.3740                 1.4498                 9.4870

                      7                      8                      9
                      A                      A                      A
 Frequencies --    110.5548               133.1037               142.5701
 Red. masses --      1.3851                 2.0012                 2.1801
 Frc consts  --      0.0100                 0.0209                 0.0261
 IR Inten    --      3.1113                 1.2887                22.2213

                     10                     11                     12
                      A                      A                      A
 Frequencies --    180.5732               199.2284               215.6899
 Red. masses --      1.7239                 1.4801                 2.3259
 Frc consts  --      0.0331                 0.0346                 0.0638
 IR Inten    --      4.7575                19.0889                 2.6507

                     13                     14                     15
                      A                      A                      A
 Frequencies --    220.8870               249.0720               273.3416
 Red. masses --      2.0399                 3.8447                 3.0702
 Frc consts  --      0.0586                 0.1405                 0.1352
 IR Inten    --      5.3013                 1.2806                27.9461

                     16                     17                     18
                      A                      A                      A
 Frequencies --    289.7623               312.7148               336.0831
 Red. masses --      3.0242                 1.9794                 1.5211
 Frc consts  --      0.1496                 0.1140                 0.1012
 IR Inten    --     23.2910                 6.5405                 2.4824

                     19                     20                     21
                      A                      A                      A
 Frequencies --    374.9474               397.7310               423.5029
 Red. masses --      3.4461                 3.5135                 2.8847
 Frc consts  --      0.2854                 0.3275                 0.3048
 IR Inten    --      6.2073                32.0585                 0.8820

                     22                     23                     24
                      A                      A                      A
 Frequencies --    425.3596               469.8045               512.2447
 Red. masses --      2.7864                 2.9175                 3.6658
 Frc consts  --      0.2970                 0.3794                 0.5667
 IR Inten    --      1.5201                32.3471                24.0483

                     25                     26                     27
                      A                      A                      A
 Frequencies --    551.0307               605.5862               636.7595
 Red. masses --      2.6804                 4.0150                 4.0423
 Frc consts  --      0.4795                 0.8675                 0.9657
 IR Inten    --     53.7145                19.3959                47.8833

                     28                     29                     30
                      A                      A                      A
 Frequencies --    643.6101               656.2888               719.7310
 Red. masses --      2.2922                 2.1021                 1.5389
 Frc consts  --      0.5594                 0.5334                 0.4697
 IR Inten    --    149.2373                51.1989                43.7005

                     31                     32                     33
                      A                      A                      A
 Frequencies --    736.1052               775.0028               790.1462
 Red. masses --      1.3633                 5.7892                 5.5213
 Frc consts  --      0.4352                 2.0487                 2.0310
 IR Inten    --     78.6981               102.8991                50.5513

                     34                     35                     36
                      A                      A                      A
 Frequencies --    800.7657               880.8057               894.8786
 Red. masses --      2.1010                 1.2445                 4.6535
 Frc consts  --      0.7937                 0.5689                 2.1956
 IR Inten    --     18.2916                 0.8107                19.0344

                     37                     38                     39
                      A                      A                      A
 Frequencies --    950.4883               965.5508              1015.8879
 Red. masses --      2.2752                 1.4685                 1.3524
 Frc consts  --      1.2111                 0.8066                 0.8223
 IR Inten    --     77.4804                 0.8083                 0.7083

                     40                     41                     42
                      A                      A                      A
 Frequencies --   1026.0986              1030.7948              1032.9153
 Red. masses --      5.0388                 1.2574                 1.3040
 Frc consts  --      3.1258                 0.7872                 0.8197
 IR Inten    --      0.8445                11.3204                17.6003

                     43                     44                     45
                      A                      A                      A
 Frequencies --   1037.5686              1055.7190              1059.8530
 Red. masses --      1.8317                 1.5643                 1.5711
 Frc consts  --      1.1618                 1.0273                 1.0398
 IR Inten    --     40.0114                43.2167               227.6190

                     46                     47                     48
                      A                      A                      A
 Frequencies --   1063.6920              1085.4392              1102.8890
 Red. masses --      2.0241                 1.3769                 2.3218
 Frc consts  --      1.3493                 0.9558                 1.6640
 IR Inten    --     62.4218                12.5739                84.3984

                     49                     50                     51
                      A                      A                      A
 Frequencies --   1115.0317              1123.9103              1131.5762
 Red. masses --      1.7474                 1.7120                 1.2385
 Frc consts  --      1.2801                 1.2741                 0.9343
 IR Inten    --     69.3285                30.8923                 7.4503

                     52                     53                     54
                      A                      A                      A
 Frequencies --   1164.3573              1185.1255              1192.7497
 Red. masses --      1.5421                 1.1306                 1.7196
 Frc consts  --      1.2318                 0.9356                 1.4414
 IR Inten    --    182.9815                 0.1532               147.4381

                     55                     56                     57
                      A                      A                      A
 Frequencies --   1213.9715              1219.8685              1290.6150
 Red. masses --      1.2396                 1.2397                 3.5455
 Frc consts  --      1.0763                 1.0869                 3.4795
 IR Inten    --     40.3458                29.9068                12.5885

                     58                     59                     60
                      A                      A                      A
 Frequencies --   1298.7131              1310.7596              1338.7649
 Red. masses --      2.5765                 5.2656                 2.0364
 Frc consts  --      2.5604                 5.3302                 2.1504
 IR Inten    --    218.5950                 6.4533                38.9195

                     61                     62                     63
                      A                      A                      A
 Frequencies --   1345.2412              1364.4440              1401.9603
 Red. masses --      1.7344                 1.4191                 1.6545
 Frc consts  --      1.8492                 1.5566                 1.9160
 IR Inten    --     48.8858                 1.3938               138.4405

                     64                     65                     66
                      A                      A                      A
 Frequencies --   1416.8042              1432.6646              1451.8067
 Red. masses --      2.0859                 1.1916                 1.3265
 Frc consts  --      2.4669                 1.4410                 1.6473
 IR Inten    --      7.2640                63.0189               357.8947

                     67                     68                     69
                      A                      A                      A
 Frequencies --   1461.7623              1475.2283              1487.3352
 Red. masses --      1.2647                 1.3187                 1.1574
 Frc consts  --      1.5922                 1.6909                 1.5085
 IR Inten    --     98.2224               459.4295                55.1483

                     70                     71                     72
                      A                      A                      A
 Frequencies --   1491.2421              1493.8941              1494.3465
 Red. masses --      1.2016                 1.2307                 1.0595
 Frc consts  --      1.5744                 1.6183                 1.3939
 IR Inten    --     48.0554                 1.5388                20.8195

                     73                     74                     75
                      A                      A                      A
 Frequencies --   1499.6810              1503.0078              1506.5298
 Red. masses --      1.2346                 1.0565                 1.0685
 Frc consts  --      1.6359                 1.4062                 1.4289
 IR Inten    --     42.1969                 7.5358                10.0784

                     76                     77                     78
                      A                      A                      A
 Frequencies --   1516.7649              1530.7965              1547.9367
 Red. masses --      1.3167                 1.3777                 2.3385
 Frc consts  --      1.7848                 1.9021                 3.3014
 IR Inten    --    175.0915               366.1926                14.8265

                     79                     80                     81
                      A                      A                      A
 Frequencies --   1578.7521              1653.3128              1657.8906
 Red. masses --      5.0951                 4.9570                 1.1242
 Frc consts  --      7.4822                 7.9832                 1.8206
 IR Inten    --    571.0810                 5.1101                58.6851

                     82                     83                     84
                      A                      A                      A
 Frequencies --   1676.8948              3002.6501              3008.9782
 Red. masses --      5.8910                 1.0508                 1.0511
 Frc consts  --      9.7600                 5.5820                 5.6070
 IR Inten    --      0.3387                79.4800               186.5948

                     85                     86                     87
                      A                      A                      A
 Frequencies --   3060.5541              3068.0852              3074.8394
 Red. masses --      1.0353                 1.0388                 1.0926
 Frc consts  --      5.7139                 5.7614                 6.0861
 IR Inten    --     58.4517                33.4820                82.9834

                     88                     89                     90
                      A                      A                      A
 Frequencies --   3095.8562              3132.7050              3134.9368
 Red. masses --      1.0833                 1.1038                 1.1013
 Frc consts  --      6.1173                 6.3821                 6.3772
 IR Inten    --     49.5385                24.7381                29.1561

                     91                     92                     93
                      A                      A                      A
 Frequencies --   3141.4385              3166.7145              3180.9455
 Red. masses --      1.1031                 1.1036                 1.1008
 Frc consts  --      6.4139                 6.5206                 6.5627
 IR Inten    --     22.4684                18.5566                 4.0228

                     94                     95                     96
                      A                      A                      A
 Frequencies --   3184.7829              3192.2654              3199.2740
 Red. masses --      1.0950                 1.0864                 1.0883
 Frc consts  --      6.5440                 6.5231                 6.5631
 IR Inten    --      5.8863                 5.2484                 2.2131

                     97                     98                     99
                      A                      A                      A
 Frequencies --   3208.5099              3219.5730              3229.4752
 Red. masses --      1.0929                 1.0964                 1.0945
 Frc consts  --      6.6286                 6.6958                 6.7253
 IR Inten    --     24.6723                25.3005                11.9444

                    100                    101                    102
                      A                      A                      A
 Frequencies --   3234.2917              3425.2324              3587.8542
 Red. masses --      1.0877                 1.0642                 1.0849
 Frc consts  --      6.7037                 7.3564                 8.2285
 IR Inten    --      6.7701               127.5586                45.7956

 - Thermochemistry -
 -------------------
 Temperature   298.150 Kelvin.  Pressure   1.00000 Atm.
 Atom     1 has atomic number  6 and mass  12.00000

 Molecular mass:   220.15756 amu.
 Principal axes and moments of inertia in atomic units:
                           1         2         3
     Eigenvalues --  2006.961545936.185606841.85832
           X            0.99979   0.02004   0.00306
           Y           -0.02006   0.99977   0.00706
           Z           -0.00292  -0.00712   0.99997
 This molecule is an asymmetric top.
 Rotational symmetry number  1.
 Warning -- assumption of classical behavior for rotation
           may cause significant error
 Rotational temperatures (Kelvin)      0.04316     0.01459     0.01266
 Rotational constants (GHZ):           0.89924     0.30402     0.26378
    1 imaginary frequencies ignored.
 Zero-point vibrational energy     824478.1 (Joules/Mol)
                                  197.05500 (Kcal/Mol)
 Warning -- explicit consideration of  25 degrees of freedom as
           vibrations may cause significant error
 Vibrational temperatures:     69.65    79.57    95.92   106.24   129.89
          (Kelvin)            159.06   191.51   205.13   259.80   286.65
                              310.33   317.81   358.36   393.28   416.90
                              449.93   483.55   539.47   572.25   609.33
                              612.00   675.94   737.01   792.81   871.30
                              916.15   926.01   944.25  1035.53  1059.09
                             1115.06  1136.84  1152.12  1267.28  1287.53
                             1367.54  1389.21  1461.64  1476.33  1483.08
                             1486.13  1492.83  1518.94  1524.89  1530.42
                             1561.70  1586.81  1604.28  1617.06  1628.09
                             1675.25  1705.13  1716.10  1746.63  1755.12
                             1856.91  1868.56  1885.89  1926.18  1935.50
                             1963.13  2017.11  2038.47  2061.28  2088.83
                             2103.15  2122.52  2139.94  2145.56  2149.38
                             2150.03  2157.71  2162.49  2167.56  2182.29
                             2202.47  2227.14  2271.47  2378.75  2385.33
                             2412.68  4320.14  4329.25  4403.45  4414.29
                             4424.01  4454.25  4507.26  4510.47  4519.83
                             4556.20  4576.67  4582.19  4592.96  4603.04
                             4616.33  4632.25  4646.49  4653.42  4928.15
                             5162.12

 Zero-point correction=                           0.314027 (Hartree/Particle)
 Thermal correction to Energy=                    0.330983
 Thermal correction to Enthalpy=                  0.331927
 Thermal correction to Gibbs Free Energy=         0.269447
 Sum of electronic and zero-point Energies=           -691.840940
 Sum of electronic and thermal Energies=              -691.823984
 Sum of electronic and thermal Enthalpies=            -691.823040
 Sum of electronic and thermal Free Energies=         -691.885520

                     E (Thermal)             CV                S
                      KCal/Mol        Cal/Mol-Kelvin    Cal/Mol-Kelvin
 Total                  207.695             63.505            131.501
 Electronic               0.000              0.000              0.000
 Translational            0.889              2.981             42.070
 Rotational               0.889              2.981             32.766
 Vibrational            205.918             57.543             56.665
 Vibration     1          0.595              1.978              4.881
 Vibration     2          0.596              1.975              4.618
 Vibration     3          0.598              1.970              4.249
 Vibration     4          0.599              1.966              4.048
 Vibration     5          0.602              1.956              3.654
 Vibration     6          0.606              1.941              3.259
 Vibration     7          0.613              1.920              2.901
 Vibration     8          0.616              1.911              2.769
 Vibration     9          0.630              1.866              2.322
 Vibration    10          0.637              1.841              2.140
 Vibration    11          0.645              1.817              1.995
 Vibration    12          0.648              1.809              1.952
 Vibration    13          0.662              1.764              1.737
 Vibration    14          0.676              1.723              1.575
 Vibration    15          0.686              1.693              1.475
 Vibration    16          0.701              1.649              1.348
 Vibration    17          0.717              1.603              1.231
 Vibration    18          0.746              1.523              1.059
 Vibration    19          0.764              1.475              0.971
 Vibration    20          0.786              1.419              0.880
 Vibration    21          0.787              1.415              0.874
 Vibration    22          0.827              1.317              0.738
 Vibration    23          0.867              1.223              0.628
 Vibration    24          0.906              1.137              0.542
 Vibration    25          0.964              1.020              0.440

 Optimization completed.
    -- Stationary point found.
 Normal termination of Gaussian 16 at Sun Jan 31 16:23:47 2021.
