 Gaussian 16, Revision A.03,
 Gaussian 16:  ES64L-G16RevA.03 25-Dec-2016

 ----------------------------------------------------------------------
 # wB97XD def2tzvp, opt=(ts, noeigen, calcfc, maxcycles=70, maxstep=1),
  freq=noraman, scrf=(iefpcm, solvent=water)
 ----------------------------------------------------------------------

 ------------------------
 0_iteration/TS-930-0.out
 ------------------------
 Symbolic Z-matrix:
 Charge =  0 Multiplicity = 1

 SCF Done:  E(RwB97XD) =  -3360.31584687     A.U. after   15 cycles
 SCF Done:  E(RwB97XD) =  -3360.31583834     A.U. after   10 cycles
 SCF Done:  E(RwB97XD) =  -3360.31583346     A.U. after   10 cycles
 SCF Done:  E(RwB97XD) =  -3360.31583318     A.U. after   10 cycles
 SCF Done:  E(RwB97XD) =  -3360.31584081     A.U. after   10 cycles
 SCF Done:  E(RwB97XD) =  -3360.31586692     A.U. after   10 cycles
 SCF Done:  E(RwB97XD) =  -3360.31591333     A.U. after   10 cycles
 SCF Done:  E(RwB97XD) =  -3360.31597450     A.U. after   10 cycles
 SCF Done:  E(RwB97XD) =  -3360.31604672     A.U. after   10 cycles
 SCF Done:  E(RwB97XD) =  -3360.31612136     A.U. after   10 cycles
 SCF Done:  E(RwB97XD) =  -3360.31871778     A.U. after   10 cycles
 SCF Done:  E(RwB97XD) =  -3360.31871936     A.U. after   10 cycles
 SCF Done:  E(RwB97XD) =  -3360.31871914     A.U. after    9 cycles
 SCF Done:  E(RwB97XD) =  -3360.31871891     A.U. after    9 cycles
 SCF Done:  E(RwB97XD) =  -3360.31871923     A.U. after    8 cycles
 SCF Done:  E(RwB97XD) =  -3360.31871940     A.U. after    8 cycles
 SCF Done:  E(RwB97XD) =  -3360.31871916     A.U. after    7 cycles
 SCF Done:  E(RwB97XD) =  -3360.31871909     A.U. after    8 cycles
 SCF Done:  E(RwB97XD) =  -3360.31871916     A.U. after    8 cycles
 Optimization completed.
    -- Stationary point found.
 Normal termination of Gaussian 16 at Sat Feb 27 21:31:54 2021.

 ---------------------------------------------------------------------
 #N Geom=AllCheck Guess=TCheck SCRF=Check GenChk RwB97XD/def2TZVP Freq
 ---------------------------------------------------------------------

 Structure from the checkpoint file:  "/beegfs/scratch/user/q/tla25/Gau-12770.chk"
 ------------------------
 0_iteration/TS-930-0.out
 ------------------------
 Charge =  0 Multiplicity = 1

                         Standard orientation:
 ---------------------------------------------------------------------
 Center     Atomic      Atomic             Coordinates (Angstroms)
 Number     Number       Type             X           Y           Z
 ---------------------------------------------------------------------
      1          6           0       -0.944449    0.606869   -0.774212
      2          6           0       -2.223757    0.088502   -0.380578
      3          8           0       -3.247160    0.510762   -0.926645
      4          6           0        0.325489    0.308970   -0.318888
      5          6           0        0.194349    2.456554    1.449750
      6          1           0        0.207761    2.837388    2.469773
      7          1           0        0.805705    3.094046    0.815081
      8          1           0       -0.830471    2.455139    1.076870
      9          7           0        0.701794    1.092416    1.392138
     10          1           0        1.701348    1.041694    1.557067
     11          1           0        0.241900    0.496730    2.071574
     12         17           0        1.622534    1.084464   -1.231524
     13         35           0        0.849935   -1.508798    0.147567
     14          1           0       -0.997941    1.427160   -1.477923
     15          6           0       -2.373585   -0.962197    0.698345
     16          1           0       -1.724383   -0.789128    1.555959
     17          1           0       -3.410696   -0.969432    1.027537
     18          1           0       -2.127592   -1.946741    0.296834
 ---------------------------------------------------------------------

 SCF Done:  E(RwB97XD) =  -3360.31871916     A.U. after    1 cycles

 The electronic state is 1-A.
 Alpha  occ. eigenvalues -- -483.14229-101.71363 -62.69086 -56.48213 -56.47839
 Alpha  occ. eigenvalues --  -56.47828 -19.21043 -14.50121 -10.44981 -10.36258
 Alpha  occ. eigenvalues --  -10.32161 -10.27597 -10.26565  -9.59944  -8.83200
 Alpha  occ. eigenvalues --   -7.34618  -7.33706  -7.33677  -6.65388  -6.64203
 Alpha  occ. eigenvalues --   -6.64167  -2.75766  -2.75433  -2.75404  -2.74447
 Alpha  occ. eigenvalues --   -2.74446  -1.11843  -1.05840  -0.99359  -0.90225
 Alpha  occ. eigenvalues --   -0.85941  -0.81779  -0.79642  -0.70267  -0.64627
 Alpha  occ. eigenvalues --   -0.61462  -0.58600  -0.56639  -0.56006  -0.54692
 Alpha  occ. eigenvalues --   -0.51986  -0.50368  -0.49040  -0.48305  -0.47748
 Alpha  occ. eigenvalues --   -0.44963  -0.43583  -0.41908  -0.40763  -0.38077
 Alpha  occ. eigenvalues --   -0.37732  -0.32791  -0.29293
 Alpha virt. eigenvalues --    0.02521   0.03658   0.08120   0.09963   0.13583
 Alpha virt. eigenvalues --    0.14212   0.14532   0.16310   0.18362   0.18916
 Alpha virt. eigenvalues --    0.19239   0.19514   0.21756   0.22718   0.23395

 Mulliken charges:
               1
     1  C   -0.465606
     2  C    0.272458
     3  O   -0.500469
     4  C    0.181727
     5  C   -0.282604
     6  H    0.165739
     7  H    0.159441
     8  H    0.157512
     9  N   -0.319991
    10  H    0.299732
    11  H    0.287417
    12  Cl  -0.069271
    13  Br  -0.062888
    14  H    0.143568
    15  C   -0.361735
    16  H    0.113997
    17  H    0.130032
    18  H    0.150939
 Sum of Mulliken charges =   0.00000

 Dipole moment (field-independent basis, Debye):
    X=              6.4580    Y=              1.6917    Z=              7.4478  Tot=             10.0019
 Quadrupole moment (field-independent basis, Debye-Ang):
   XX=            -93.6419   YY=            -67.3518   ZZ=            -69.0899
   XY=              7.6253   XZ=             -5.2163   YZ=              6.0164

  Exact polarizability: 185.187   2.324 148.178  13.609  -4.422 134.137
 Approx polarizability: 145.541  -0.395 122.456  10.486  -5.321 115.804

 ******    1 imaginary frequencies (negative Signs) ******

                      1                      2                      3
                      A                      A                      A
 Frequencies --   -366.2498                61.8072                74.3302
 Red. masses --      5.6474                 2.6910                 5.2939
 Frc consts  --      0.4463                 0.0061                 0.0172
 IR Inten    --    785.7187                 0.4596                 6.8152

                      4                      5                      6
                      A                      A                      A
 Frequencies --    111.5621               137.3553               156.8429
 Red. masses --      2.2977                 4.8118                 1.6872
 Frc consts  --      0.0168                 0.0535                 0.0245
 IR Inten    --      6.8227                 3.5321                 0.4779

                      7                      8                      9
                      A                      A                      A
 Frequencies --    197.5404               213.5072               225.1625
 Red. masses --      1.7979                12.3100                 1.4209
 Frc consts  --      0.0413                 0.3306                 0.0424
 IR Inten    --      1.5834                 4.9989                 2.5817

                     10                     11                     12
                      A                      A                      A
 Frequencies --    274.2497               288.0938               297.3377
 Red. masses --      4.7542                 3.6183                 3.4685
 Frc consts  --      0.2107                 0.1769                 0.1807
 IR Inten    --      9.8486                15.5634                 9.6632

                     13                     14                     15
                      A                      A                      A
 Frequencies --    365.1856               496.9845               541.8778
 Red. masses --      9.3696                 4.9335                 2.8257
 Frc consts  --      0.7362                 0.7179                 0.4888
 IR Inten    --     20.6758                69.9531                46.9239

                     16                     17                     18
                      A                      A                      A
 Frequencies --    576.4293               619.4175               678.1944
 Red. masses --      2.0308                 3.6363                 1.5350
 Frc consts  --      0.3976                 0.8220                 0.4160
 IR Inten    --     14.0002                64.6546                34.0887

                     19                     20                     21
                      A                      A                      A
 Frequencies --    754.8692               843.1194               847.9506
 Red. masses --      1.6498                 3.8928                 3.7707
 Frc consts  --      0.5539                 1.6304                 1.5974
 IR Inten    --    123.2226                44.7223               183.8973

                     22                     23                     24
                      A                      A                      A
 Frequencies --   1006.8340              1021.6198              1044.0745
 Red. masses --      1.0842                 1.4769                 1.8423
 Frc consts  --      0.6475                 0.9082                 1.1833
 IR Inten    --     11.7583                92.5018                25.7733

                     25                     26                     27
                      A                      A                      A
 Frequencies --   1048.2128              1078.9516              1225.6055
 Red. masses --      1.1849                 5.1616                 1.3952
 Frc consts  --      0.7670                 3.5403                 1.2347
 IR Inten    --    121.3253                48.2472                40.7357

                     28                     29                     30
                      A                      A                      A
 Frequencies --   1255.3842              1310.0623              1338.9097
 Red. masses --      1.5945                 2.9000                 1.3231
 Frc consts  --      1.4805                 2.9325                 1.3975
 IR Inten    --    506.8193               252.2158                 0.1746

                     31                     32                     33
                      A                      A                      A
 Frequencies --   1397.2162              1444.1985              1459.0836
 Red. masses --      1.3923                 1.6157                 1.1454
 Frc consts  --      1.6015                 1.9855                 1.4367
 IR Inten    --     66.9073               612.9914               141.6503

                     34                     35                     36
                      A                      A                      A
 Frequencies --   1469.8881              1489.3503              1492.9025
 Red. masses --      1.7421                 1.0731                 1.0586
 Frc consts  --      2.2177                 1.4025                 1.3901
 IR Inten    --    396.2015                34.6458                21.0158

                     37                     38                     39
                      A                      A                      A
 Frequencies --   1496.4045              1645.2503              1654.9038
 Red. masses --      1.0361                 1.1139                 7.6114
 Frc consts  --      1.3669                 1.7764                12.2817
 IR Inten    --     16.6281               139.7702               718.5276

                     40                     41                     42
                      A                      A                      A
 Frequencies --   3070.6665              3071.0281              3144.9777
 Red. masses --      1.0365                 1.0333                 1.0989
 Frc consts  --      5.7582                 5.7417                 6.4038
 IR Inten    --      7.2040                25.4956                15.5509

                     43                     44                     45
                      A                      A                      A
 Frequencies --   3151.2274              3166.3268              3172.8836
 Red. masses --      1.1042                 1.1039                 1.1059
 Frc consts  --      6.4605                 6.5209                 6.5596
 IR Inten    --      3.8908                32.7229                 8.5315

                     46                     47                     48
                      A                      A                      A
 Frequencies --   3203.5869              3520.9032              3605.3383
 Red. masses --      1.0875                 1.0506                 1.0969
 Frc consts  --      6.5757                 7.6733                 8.4004
 IR Inten    --      0.5297                60.7974                61.9503

 - Thermochemistry -
 -------------------
 Temperature   298.150 Kelvin.  Pressure   1.00000 Atm.
 Atom     1 has atomic number  6 and mass  12.00000

 Molecular mass:   212.95560 amu.
 Principal axes and moments of inertia in atomic units:
                           1         2         3
     Eigenvalues --  1842.283372308.050863035.77905
           X            0.98956   0.14414  -0.00143
           Y           -0.14371   0.98730   0.06768
           Z            0.01117  -0.06677   0.99771
 This molecule is an asymmetric top.
 Rotational symmetry number  1.
 Warning -- assumption of classical behavior for rotation
           may cause significant error
 Rotational temperatures (Kelvin)      0.04701     0.03753     0.02853
 Rotational constants (GHZ):           0.97962     0.78193     0.59449
    1 imaginary frequencies ignored.
 Zero-point vibrational energy     363351.4 (Joules/Mol)
                                   86.84307 (Kcal/Mol)
 Warning -- explicit consideration of  16 degrees of freedom as
           vibrations may cause significant error
 Vibrational temperatures:     88.93   106.94   160.51   197.62   225.66
          (Kelvin)            284.22   307.19   323.96   394.58   414.50
                              427.80   525.42   715.05   779.64   829.35
                              891.20   975.77  1086.09  1213.06  1220.01
                             1448.61  1469.88  1502.19  1508.14  1552.37
                             1763.37  1806.22  1884.89  1926.39  2010.28
                             2077.88  2099.30  2114.84  2142.84  2147.95
                             2152.99  2367.15  2381.04  4418.00  4418.52
                             4524.92  4533.91  4555.64  4565.07  4609.25
                             5065.79  5187.28

 Zero-point correction=                           0.138393 (Hartree/Particle)
 Thermal correction to Energy=                    0.149458
 Thermal correction to Enthalpy=                  0.150403
 Thermal correction to Gibbs Free Energy=         0.100336
 Sum of electronic and zero-point Energies=          -3360.180326
 Sum of electronic and thermal Energies=             -3360.169261
 Sum of electronic and thermal Enthalpies=           -3360.168317
 Sum of electronic and thermal Free Energies=        -3360.218383

                     E (Thermal)             CV                S
                      KCal/Mol        Cal/Mol-Kelvin    Cal/Mol-Kelvin
 Total                   93.787             38.002            105.374
 Electronic               0.000              0.000              0.000
 Translational            0.889              2.981             41.971
 Rotational               0.889              2.981             30.935
 Vibrational             92.009             32.040             32.468
 Vibration     1          0.597              1.973              4.399
 Vibration     2          0.599              1.966              4.035
 Vibration     3          0.607              1.940              3.242
 Vibration     4          0.614              1.916              2.840
 Vibration     5          0.621              1.895              2.588
 Vibration     6          0.637              1.843              2.156
 Vibration     7          0.644              1.820              2.013
 Vibration     8          0.650              1.803              1.917
 Vibration     9          0.677              1.721              1.569
 Vibration    10          0.685              1.696              1.485
 Vibration    11          0.691              1.679              1.432
 Vibration    12          0.738              1.544              1.100
 Vibration    13          0.853              1.257              0.666
 Vibration    14          0.897              1.157              0.561
 Vibration    15          0.933              1.082              0.492
 Vibration    16          0.979              0.991              0.417

 Optimization completed.
    -- Stationary point found.
 Normal termination of Gaussian 16 at Sat Feb 27 21:43:31 2021.
