 Gaussian 16, Revision A.03,
 Gaussian 16:  ES64L-G16RevA.03 25-Dec-2016

 ----------------------------------------------------------------------
 # wB97XD def2tzvp, opt=(ts, noeigen, calcfc, maxcycles=70, maxstep=1),
  freq=noraman, scrf=(iefpcm, solvent=water)
 ----------------------------------------------------------------------

 ------------------------
 0_iteration/TS-950-0.out
 ------------------------
 Symbolic Z-matrix:
 Charge =  0 Multiplicity = 1

 SCF Done:  E(RwB97XD) =  -6028.60521495     A.U. after   16 cycles
 SCF Done:  E(RwB97XD) =  -6028.60519986     A.U. after   10 cycles
 SCF Done:  E(RwB97XD) =  -6028.60518748     A.U. after   10 cycles
 SCF Done:  E(RwB97XD) =  -6028.60517785     A.U. after   10 cycles
 SCF Done:  E(RwB97XD) =  -6028.60517140     A.U. after   10 cycles
 SCF Done:  E(RwB97XD) =  -6028.60516863     A.U. after   10 cycles
 SCF Done:  E(RwB97XD) =  -6028.60517092     A.U. after   10 cycles
 SCF Done:  E(RwB97XD) =  -6028.60518134     A.U. after   10 cycles
 SCF Done:  E(RwB97XD) =  -6028.60520260     A.U. after   10 cycles
 SCF Done:  E(RwB97XD) =  -6028.60523475     A.U. after   10 cycles
 SCF Done:  E(RwB97XD) =  -6028.60652846     A.U. after   10 cycles
 SCF Done:  E(RwB97XD) =  -6028.60658217     A.U. after   10 cycles
 SCF Done:  E(RwB97XD) =  -6028.60662877     A.U. after   10 cycles
 SCF Done:  E(RwB97XD) =  -6028.60666895     A.U. after   10 cycles
 SCF Done:  E(RwB97XD) =  -6028.60670120     A.U. after   10 cycles
 SCF Done:  E(RwB97XD) =  -6028.60672343     A.U. after    9 cycles
 SCF Done:  E(RwB97XD) =  -6028.60673632     A.U. after    9 cycles
 SCF Done:  E(RwB97XD) =  -6028.60674090     A.U. after    9 cycles
 SCF Done:  E(RwB97XD) =  -6028.60674101     A.U. after    7 cycles
 Optimization completed.
    -- Stationary point found.
 Normal termination of Gaussian 16 at Sun Feb 28 08:49:09 2021.

 ---------------------------------------------------------------------
 #N Geom=AllCheck Guess=TCheck SCRF=Check GenChk RwB97XD/def2TZVP Freq
 ---------------------------------------------------------------------

 Structure from the checkpoint file:  "/beegfs/scratch/user/q/tla25/Gau-83591.chk"
 ------------------------
 0_iteration/TS-950-0.out
 ------------------------
 Charge =  0 Multiplicity = 1

                         Standard orientation:
 ---------------------------------------------------------------------
 Center     Atomic      Atomic             Coordinates (Angstroms)
 Number     Number       Type             X           Y           Z
 ---------------------------------------------------------------------
      1          6           0       -0.358964    0.228323   -0.104767
      2          6           0       -1.144991   -0.841100    0.541376
      3          8           0       -0.688242   -1.440491    1.526862
      4          6           0        1.017243    0.141815   -0.112628
      5          6           0        1.428110    1.292913    2.424508
      6          1           0        1.647820    1.153896    3.483374
      7          1           0        2.019121    2.121669    2.040507
      8          1           0        0.369303    1.521805    2.311013
      9          7           0        1.722360    0.084969    1.665673
     10          1           0        2.705898   -0.159173    1.676686
     11          1           0        1.151435   -0.697188    1.987189
     12         17           0        1.953447    1.438134   -0.805899
     13         35           0        1.759430   -1.595216   -0.665792
     14         35           0       -1.221565    1.921738   -0.302007
     15          7           0       -2.370890   -1.134498    0.058678
     16          6           0       -3.232145   -2.027553    0.806198
     17          6           0       -2.822718   -0.797012   -1.275634
     18          1           0       -2.992015   -1.972688    1.864209
     19          1           0       -4.269400   -1.727465    0.654013
     20          1           0       -3.116678   -3.063416    0.473562
     21          1           0       -1.997068   -0.415173   -1.869302
     22          1           0       -3.204017   -1.699889   -1.757553
     23          1           0       -3.621837   -0.052618   -1.250105
 ---------------------------------------------------------------------

 SCF Done:  E(RwB97XD) =  -6028.60674101     A.U. after    1 cycles

 The electronic state is 1-A.
 Alpha  occ. eigenvalues -- -483.13706-483.12981-101.71683 -62.68551 -62.67791
 Alpha  occ. eigenvalues --  -56.47681 -56.47301 -56.47299 -56.46917 -56.46553
 Alpha  occ. eigenvalues --  -56.46546 -19.21747 -14.48561 -14.46737 -10.44753
 Alpha  occ. eigenvalues --  -10.39375 -10.31750 -10.31596 -10.31110 -10.30812
 Alpha  occ. eigenvalues --   -9.60257  -8.82653  -8.81892  -7.34939  -7.34016
 Alpha  occ. eigenvalues --   -7.33983  -6.64844  -6.64062  -6.63641  -6.63631
 Alpha  occ. eigenvalues --   -6.62899  -6.62875  -2.75216  -2.74877  -2.74869
 Alpha  occ. eigenvalues --   -2.74446  -2.74109  -2.74090  -2.73897  -2.73896
 Alpha  occ. eigenvalues --   -2.73150  -2.73150  -1.14528  -1.04887  -1.04012
 Alpha  occ. eigenvalues --   -0.99684  -0.91583  -0.89301  -0.82687  -0.81587
 Alpha  occ. eigenvalues --   -0.79616  -0.78743  -0.68885  -0.64125  -0.62182
 Alpha  occ. eigenvalues --   -0.59427  -0.57813  -0.57281  -0.56620  -0.54853
 Alpha  occ. eigenvalues --   -0.53870  -0.51585  -0.48979  -0.48791  -0.48624
 Alpha  occ. eigenvalues --   -0.48102  -0.47129  -0.46874  -0.45756  -0.42164
 Alpha  occ. eigenvalues --   -0.40722  -0.39734  -0.38444  -0.37631  -0.37074
 Alpha  occ. eigenvalues --   -0.35144  -0.32643  -0.27532
 Alpha virt. eigenvalues --    0.01828   0.04352   0.06186   0.10778   0.11692
 Alpha virt. eigenvalues --    0.12502   0.14791   0.15449   0.15946   0.17125
 Alpha virt. eigenvalues --    0.17487   0.17989   0.18873   0.19637   0.20155

 Mulliken charges:
               1
     1  C   -0.392574
     2  C    0.351911
     3  O   -0.548389
     4  C    0.209624
     5  C   -0.299464
     6  H    0.158920
     7  H    0.153519
     8  H    0.156354
     9  N   -0.310636
    10  H    0.285856
    11  H    0.283299
    12  Cl  -0.040838
    13  Br  -0.089217
    14  Br  -0.113081
    15  N   -0.096595
    16  C   -0.289915
    17  C   -0.305298
    18  H    0.143509
    19  H    0.143417
    20  H    0.141485
    21  H    0.165467
    22  H    0.144889
    23  H    0.147757
 Sum of Mulliken charges =  -0.00000

 Dipole moment (field-independent basis, Debye):
    X=              0.7180    Y=              0.2531    Z=              2.1779  Tot=              2.3071
 Quadrupole moment (field-independent basis, Debye-Ang):
   XX=            -87.5470   YY=           -106.4423   ZZ=            -99.2043
   XY=              6.6827   XZ=             11.2034   YZ=              6.1322

  Exact polarizability: 235.278  -1.739 212.643  16.235   0.376 183.441
 Approx polarizability: 182.193  -4.121 176.345  11.673  -3.652 157.767

 ******    1 imaginary frequencies (negative Signs) ******

                      1                      2                      3
                      A                      A                      A
 Frequencies --   -387.7293                47.3939                64.3867
 Red. masses --      6.0775                 4.7968                 6.1224
 Frc consts  --      0.5383                 0.0063                 0.0150
 IR Inten    --    765.3583                 4.1982                 3.6795

                      4                      5                      6
                      A                      A                      A
 Frequencies --     82.9995                90.5485               109.8272
 Red. masses --      2.5159                 3.2557                 1.2616
 Frc consts  --      0.0102                 0.0157                 0.0090
 IR Inten    --      0.3242                 2.7088                 0.0419

                      7                      8                      9
                      A                      A                      A
 Frequencies --    131.4732               142.3234               159.1893
 Red. masses --      3.2136                 9.3361                 3.0289
 Frc consts  --      0.0327                 0.1114                 0.0452
 IR Inten    --     19.3532                 3.2970                 5.3645

                     10                     11                     12
                      A                      A                      A
 Frequencies --    160.3932               171.0546               192.2643
 Red. masses --      3.6416                 1.5553                 2.8362
 Frc consts  --      0.0552                 0.0268                 0.0618
 IR Inten    --      5.5662                 1.1996                 3.1696

                     13                     14                     15
                      A                      A                      A
 Frequencies --    210.3287               224.2539               240.2955
 Red. masses --      3.3037                 5.2083                 3.1172
 Frc consts  --      0.0861                 0.1543                 0.1060
 IR Inten    --      0.9613                10.5621                 4.6024

                     16                     17                     18
                      A                      A                      A
 Frequencies --    264.4374               278.5373               327.8816
 Red. masses --      2.3530                 3.7266                 4.9091
 Frc consts  --      0.0969                 0.1703                 0.3109
 IR Inten    --     18.6152                40.7793                21.1296

                     19                     20                     21
                      A                      A                      A
 Frequencies --    348.6405               402.3624               482.7195
 Red. masses --      5.9379                 3.1861                 4.0745
 Frc consts  --      0.4252                 0.3039                 0.5594
 IR Inten    --      2.2353                 9.8529                67.3576

                     22                     23                     24
                      A                      A                      A
 Frequencies --    500.0714               642.5756               666.5768
 Red. masses --      9.6423                 2.5914                 5.2028
 Frc consts  --      1.4207                 0.6304                 1.3620
 IR Inten    --    118.9567                35.5102                57.3228

                     25                     26                     27
                      A                      A                      A
 Frequencies --    744.4967               772.7123               807.6650
 Red. masses --      4.2393                 3.5143                 5.7108
 Frc consts  --      1.3844                 1.2363                 2.1949
 IR Inten    --    185.8967                29.5569               110.0620

                     28                     29                     30
                      A                      A                      A
 Frequencies --    943.2485              1006.8885              1049.1203
 Red. masses --      4.8242                 1.1023                 2.4968
 Frc consts  --      2.5289                 0.6584                 1.6191
 IR Inten    --     33.1834                74.5895                65.1704

                     31                     32                     33
                      A                      A                      A
 Frequencies --   1079.0634              1087.2645              1095.0189
 Red. masses --      2.3027                 1.3823                 1.7054
 Frc consts  --      1.5797                 0.9628                 1.2048
 IR Inten    --      5.4697                19.3858               133.8039

                     34                     35                     36
                      A                      A                      A
 Frequencies --   1131.8846              1171.6487              1210.4032
 Red. masses --      1.2302                 1.4171                 2.6326
 Frc consts  --      0.9286                 1.1462                 2.2724
 IR Inten    --      0.6229                 3.3197               239.0676

                     37                     38                     39
                      A                      A                      A
 Frequencies --   1221.4824              1315.8045              1358.3035
 Red. masses --      1.4424                 5.3047                 1.3200
 Frc consts  --      1.2679                 5.4112                 1.4349
 IR Inten    --     42.1688                56.1877                27.9645

                     40                     41                     42
                      A                      A                      A
 Frequencies --   1404.2235              1441.0149              1446.7236
 Red. masses --      5.5347                 1.5859                 1.2931
 Frc consts  --      6.4301                 1.9403                 1.5946
 IR Inten    --   1007.3152                69.8726                33.4759

                     43                     44                     45
                      A                      A                      A
 Frequencies --   1459.9511              1473.0617              1482.5220
 Red. masses --      1.2385                 1.2135                 1.0805
 Frc consts  --      1.5553                 1.5515                 1.3991
 IR Inten    --     17.9204                28.8714                 5.5983

                     46                     47                     48
                      A                      A                      A
 Frequencies --   1489.7720              1492.9008              1501.2254
 Red. masses --      1.0411                 1.0572                 1.0538
 Frc consts  --      1.3614                 1.3883                 1.3993
 IR Inten    --     25.6868                24.9111                20.4137

                     49                     50                     51
                      A                      A                      A
 Frequencies --   1502.6371              1537.5416              1614.8747
 Red. masses --      1.0337                 1.7908                 1.4482
 Frc consts  --      1.3751                 2.4943                 2.2251
 IR Inten    --      8.4864               197.6834               426.1368

                     52                     53                     54
                      A                      A                      A
 Frequencies --   1651.4426              3041.1256              3048.2638
 Red. masses --      2.6549                 1.0422                 1.0379
 Frc consts  --      4.2660                 5.6788                 5.6824
 IR Inten    --    403.5484                63.8023                93.1677

                     55                     56                     57
                      A                      A                      A
 Frequencies --   3070.4510              3106.5481              3114.9033
 Red. masses --      1.0337                 1.1031                 1.0980
 Frc consts  --      5.7416                 6.2719                 6.2770
 IR Inten    --     36.5362                56.9753                18.1151

                     58                     59                     60
                      A                      A                      A
 Frequencies --   3147.8402              3170.4735              3174.8027
 Red. masses --      1.1037                 1.1057                 1.0998
 Frc consts  --      6.4436                 6.5487                 6.5314
 IR Inten    --     11.9420                12.4018                11.2824

                     61                     62                     63
                      A                      A                      A
 Frequencies --   3176.9215              3432.5758              3585.0972
 Red. masses --      1.1010                 1.0597                 1.0898
 Frc consts  --      6.5470                 7.3565                 8.2526
 IR Inten    --      8.9305               120.8496               115.8169

 - Thermochemistry -
 -------------------
 Temperature   298.150 Kelvin.  Pressure   1.00000 Atm.
 Atom     1 has atomic number  6 and mass  12.00000

 Molecular mass:   319.89266 amu.
 Principal axes and moments of inertia in atomic units:
                           1         2         3
     Eigenvalues --  3532.377254581.290476104.69142
           X            0.96030   0.27558   0.04347
           Y           -0.27649   0.96088   0.01646
           Z           -0.03723  -0.02782   0.99892
 This molecule is an asymmetric top.
 Rotational symmetry number  1.
 Warning -- assumption of classical behavior for rotation
           may cause significant error
 Rotational temperatures (Kelvin)      0.02452     0.01891     0.01419
 Rotational constants (GHZ):           0.51091     0.39394     0.29563
    1 imaginary frequencies ignored.
 Zero-point vibrational energy     457586.2 (Joules/Mol)
                                  109.36572 (Kcal/Mol)
 Warning -- explicit consideration of  21 degrees of freedom as
           vibrations may cause significant error
 Vibrational temperatures:     68.19    92.64   119.42   130.28   158.02
          (Kelvin)            189.16   204.77   229.04   230.77   246.11
                              276.63   302.62   322.65   345.73   380.47
                              400.75   471.75   501.62   578.91   694.53
                              719.49   924.52   959.06  1071.16  1111.76
                             1162.05  1357.12  1448.69  1509.45  1552.53
                             1564.33  1575.49  1628.53  1685.74  1741.50
                             1757.44  1893.15  1954.30  2020.36  2073.30
                             2081.51  2100.54  2119.41  2133.02  2143.45
                             2147.95  2159.93  2161.96  2212.18  2323.44
                             2376.06  4375.50  4385.77  4417.69  4469.63
                             4481.65  4529.04  4561.60  4567.83  4570.88
                             4938.71  5158.16

 Zero-point correction=                           0.174285 (Hartree/Particle)
 Thermal correction to Energy=                    0.189639
 Thermal correction to Enthalpy=                  0.190583
 Thermal correction to Gibbs Free Energy=         0.129986
 Sum of electronic and zero-point Energies=          -6028.432456
 Sum of electronic and thermal Energies=             -6028.417102
 Sum of electronic and thermal Enthalpies=           -6028.416158
 Sum of electronic and thermal Free Energies=        -6028.476755

                     E (Thermal)             CV                S
                      KCal/Mol        Cal/Mol-Kelvin    Cal/Mol-Kelvin
 Total                  119.000             51.235            127.537
 Electronic               0.000              0.000              0.000
 Translational            0.889              2.981             43.184
 Rotational               0.889              2.981             32.957
 Vibrational            117.223             45.273             51.396
 Vibration     1          0.595              1.979              4.923
 Vibration     2          0.597              1.971              4.318
 Vibration     3          0.600              1.961              3.819
 Vibration     4          0.602              1.956              3.648
 Vibration     5          0.606              1.941              3.272
 Vibration     6          0.612              1.922              2.924
 Vibration     7          0.616              1.911              2.772
 Vibration     8          0.621              1.892              2.559
 Vibration     9          0.622              1.891              2.545
 Vibration    10          0.626              1.878              2.424
 Vibration    11          0.634              1.851              2.206
 Vibration    12          0.642              1.825              2.041
 Vibration    13          0.649              1.804              1.924
 Vibration    14          0.657              1.779              1.801
 Vibration    15          0.671              1.738              1.632
 Vibration    16          0.679              1.713              1.543
 Vibration    17          0.711              1.620              1.271
 Vibration    18          0.726              1.578              1.172
 Vibration    19          0.768              1.465              0.954
 Vibration    20          0.839              1.288              0.703
 Vibration    21          0.855              1.250              0.658

 Optimization completed.
    -- Stationary point found.
 Normal termination of Gaussian 16 at Sun Feb 28 09:22:59 2021.
