 Gaussian 16, Revision A.03,
 Gaussian 16:  ES64L-G16RevA.03 25-Dec-2016

 ----------------------------------------------------------------------
 # wB97XD def2tzvp, opt=(ts, noeigen, calcfc, maxcycles=70, maxstep=8),
  freq=noraman, scrf=(iefpcm, solvent=water)
 ----------------------------------------------------------------------

 ------------------------
 1_iteration/TS-940-1.out
 ------------------------
 Symbolic Z-matrix:
 Charge =  0 Multiplicity = 1

 SCF Done:  E(RwB97XD) =  -3474.86800518     A.U. after   15 cycles
 SCF Done:  E(RwB97XD) =  -3474.87028002     A.U. after   13 cycles
 SCF Done:  E(RwB97XD) =  -3474.87182347     A.U. after   13 cycles
 SCF Done:  E(RwB97XD) =  -3474.87286363     A.U. after   14 cycles
 SCF Done:  E(RwB97XD) =  -3474.87303003     A.U. after   12 cycles
 SCF Done:  E(RwB97XD) =  -3474.87308165     A.U. after   12 cycles
 SCF Done:  E(RwB97XD) =  -3474.87315128     A.U. after   11 cycles
 SCF Done:  E(RwB97XD) =  -3474.87336837     A.U. after   12 cycles
 SCF Done:  E(RwB97XD) =  -3474.87365562     A.U. after   11 cycles
 SCF Done:  E(RwB97XD) =  -3474.87357606     A.U. after   12 cycles
 SCF Done:  E(RwB97XD) =  -3474.87363046     A.U. after   12 cycles
 SCF Done:  E(RwB97XD) =  -3474.87373665     A.U. after   11 cycles
 SCF Done:  E(RwB97XD) =  -3474.87374560     A.U. after   11 cycles
 SCF Done:  E(RwB97XD) =  -3474.87374958     A.U. after   11 cycles
 SCF Done:  E(RwB97XD) =  -3474.87375417     A.U. after   10 cycles
 SCF Done:  E(RwB97XD) =  -3474.87375423     A.U. after    8 cycles
 SCF Done:  E(RwB97XD) =  -3474.87375429     A.U. after    6 cycles
 SCF Done:  E(RwB97XD) =  -3474.87375425     A.U. after    6 cycles
 SCF Done:  E(RwB97XD) =  -3474.87375428     A.U. after    6 cycles
 Optimization completed.
    -- Stationary point found.
 Normal termination of Gaussian 16 at Sun Feb 28 15:29:03 2021.

 ---------------------------------------------------------------------
 #N Geom=AllCheck Guess=TCheck SCRF=Check GenChk RwB97XD/def2TZVP Freq
 ---------------------------------------------------------------------

 Structure from the checkpoint file:  "/beegfs/scratch/user/q/tla25/Gau-23841.chk"
 ------------------------
 1_iteration/TS-940-1.out
 ------------------------
 Charge =  0 Multiplicity = 1

                         Standard orientation:
 ---------------------------------------------------------------------
 Center     Atomic      Atomic             Coordinates (Angstroms)
 Number     Number       Type             X           Y           Z
 ---------------------------------------------------------------------
      1          6           0       -0.370580    0.978297   -0.652610
      2          6           0       -1.737008    0.542621   -0.479724
      3          8           0       -2.708445    1.008412   -1.051323
      4          6           0        0.687268    0.253453   -0.140998
      5          6           0        0.443799    1.569776    2.326775
      6          1           0       -0.344363    2.044147    1.739311
      7          1           0        0.143042    1.551388    3.373961
      8          1           0        1.361945    2.143951    2.223641
      9          7           0        0.649351    0.227912    1.806448
     10          1           0        1.485908   -0.216810    2.165806
     11          1           0       -0.152118   -0.368312    1.980797
     12         17           0        2.288494    0.917874   -0.400034
     13         35           0        0.788598   -1.706986   -0.343992
     14          6           0       -0.159897    2.306787   -1.340463
     15          1           0        0.323947    3.040829   -0.692245
     16          1           0        0.447574    2.214878   -2.243653
     17          1           0       -1.130469    2.703767   -1.630308
     18          8           0       -1.880102   -0.432088    0.448787
     19          6           0       -3.188026   -0.961424    0.627901
     20          1           0       -3.569402   -1.376847   -0.304787
     21          1           0       -3.089334   -1.747102    1.372453
     22          1           0       -3.872455   -0.192262    0.985184
 ---------------------------------------------------------------------

 SCF Done:  E(RwB97XD) =  -3474.87375428     A.U. after    1 cycles

 The electronic state is 1-A.
 Alpha  occ. eigenvalues -- -483.13226-101.71280 -62.68074 -56.47200 -56.46831
 Alpha  occ. eigenvalues --  -56.46819 -19.28968 -19.21939 -14.48853 -10.44132
 Alpha  occ. eigenvalues --  -10.40363 -10.32969 -10.31812 -10.27782 -10.27390
 Alpha  occ. eigenvalues --   -9.59864  -8.82180  -7.34529  -7.33638  -7.33594
 Alpha  occ. eigenvalues --   -6.64357  -6.63190  -6.63153  -2.74732  -2.74410
 Alpha  occ. eigenvalues --   -2.74380  -2.73436  -2.73436  -1.20324  -1.10642
 Alpha  occ. eigenvalues --   -1.04795  -0.99322  -0.89957  -0.87584  -0.82157
 Alpha  occ. eigenvalues --   -0.79066  -0.76587  -0.69761  -0.64429  -0.63244
 Alpha  occ. eigenvalues --   -0.59436  -0.57877  -0.57133  -0.56819  -0.54566
 Alpha  occ. eigenvalues --   -0.52640  -0.52168  -0.49685  -0.48342  -0.47423
 Alpha  occ. eigenvalues --   -0.47058  -0.45786  -0.45592  -0.44185  -0.41473
 Alpha  occ. eigenvalues --   -0.40294  -0.38980  -0.37280  -0.36740  -0.35670
 Alpha  occ. eigenvalues --   -0.27970
 Alpha virt. eigenvalues --    0.02516   0.04498   0.09302   0.10429   0.13306
 Alpha virt. eigenvalues --    0.13741   0.15837   0.15942   0.16419   0.16880
 Alpha virt. eigenvalues --    0.18636   0.19981   0.20315   0.20784   0.21128

 Mulliken charges:
               1
     1  C   -0.340475
     2  C    0.440267
     3  O   -0.489559
     4  C    0.223505
     5  C   -0.294365
     6  H    0.155561
     7  H    0.161569
     8  H    0.157774
     9  N   -0.337547
    10  H    0.291433
    11  H    0.287351
    12  Cl  -0.053973
    13  Br  -0.104128
    14  C   -0.380257
    15  H    0.128896
    16  H    0.129462
    17  H    0.135177
    18  O   -0.318622
    19  C   -0.196894
    20  H    0.132971
    21  H    0.140597
    22  H    0.131257
 Sum of Mulliken charges =  -0.00000

 Dipole moment (field-independent basis, Debye):
    X=              2.5554    Y=             -0.6905    Z=              7.5336  Tot=              7.9851
 Quadrupole moment (field-independent basis, Debye-Ang):
   XX=            -91.1766   YY=            -84.8011   ZZ=            -77.1735
   XY=              9.2024   XZ=             -3.9569   YZ=              3.3561

  Exact polarizability: 192.822  -4.064 175.280  13.589  -6.667 161.375
 Approx polarizability: 154.169  -3.295 143.695  10.604  -6.618 135.209

 ******    1 imaginary frequencies (negative Signs) ******

                      1                      2                      3
                      A                      A                      A
 Frequencies --   -384.9948                51.9055                69.7782
 Red. masses --      5.7716                 2.9948                 4.8699
 Frc consts  --      0.5040                 0.0048                 0.0140
 IR Inten    --    661.3245                 2.7316                 4.4123

                      4                      5                      6
                      A                      A                      A
 Frequencies --     87.2263               100.7751               114.9555
 Red. masses --      2.2428                 1.7732                 1.6488
 Frc consts  --      0.0101                 0.0106                 0.0128
 IR Inten    --      4.3828                 1.6164                 8.3065

                      7                      8                      9
                      A                      A                      A
 Frequencies --    133.2326               157.3766               160.2063
 Red. masses --      3.4665                 1.4459                 1.6833
 Frc consts  --      0.0363                 0.0211                 0.0255
 IR Inten    --      3.8522                 1.4019                 2.9162

                     10                     11                     12
                      A                      A                      A
 Frequencies --    176.6062               189.7938               216.8230
 Red. masses --      2.0232                 2.7698                 8.4630
 Frc consts  --      0.0372                 0.0588                 0.2344
 IR Inten    --      1.0919                 4.5346                 2.6284

                     13                     14                     15
                      A                      A                      A
 Frequencies --    262.3121               263.5821               285.3228
 Red. masses --      3.9313                 6.1062                 4.0439
 Frc consts  --      0.1594                 0.2499                 0.1940
 IR Inten    --     17.8361                25.2112                 6.5478

                     16                     17                     18
                      A                      A                      A
 Frequencies --    325.2143               350.1396               390.0246
 Red. masses --      3.7955                 4.7259                 6.4167
 Frc consts  --      0.2365                 0.3414                 0.5751
 IR Inten    --     12.9073                23.2557                40.2757

                     19                     20                     21
                      A                      A                      A
 Frequencies --    476.5676               565.4190               646.8239
 Red. masses --      7.2888                 4.4063                 1.6750
 Frc consts  --      0.9753                 0.8300                 0.4129
 IR Inten    --     59.2423                78.5845                 1.3849

                     22                     23                     24
                      A                      A                      A
 Frequencies --    724.4277               784.1679               799.1930
 Red. masses --      3.2489                 6.6264                 7.7058
 Frc consts  --      1.0046                 2.4008                 2.8998
 IR Inten    --     97.1394               104.3944               117.6678

                     25                     26                     27
                      A                      A                      A
 Frequencies --    885.1945               982.2666              1012.9831
 Red. masses --      4.2919                 1.3198                 2.2526
 Frc consts  --      1.9814                 0.7503                 1.3619
 IR Inten    --     60.5433               111.7513               143.9358

                     28                     29                     30
                      A                      A                      A
 Frequencies --   1038.6206              1050.0805              1070.2456
 Red. masses --      1.1635                 1.9351                 1.3695
 Frc consts  --      0.7395                 1.2572                 0.9242
 IR Inten    --     99.2481                87.9464                 5.2801

                     31                     32                     33
                      A                      A                      A
 Frequencies --   1085.4536              1173.1634              1183.0794
 Red. masses --      4.7565                 5.5785                 1.2929
 Frc consts  --      3.3018                 4.5236                 1.0662
 IR Inten    --     39.4002               297.2517                 5.1865

                     34                     35                     36
                      A                      A                      A
 Frequencies --   1204.7507              1218.8818              1333.1460
 Red. masses --      1.4162                 1.6099                 3.6717
 Frc consts  --      1.2110                 1.4092                 3.8448
 IR Inten    --     20.3878               129.1252               575.7819

                     37                     38                     39
                      A                      A                      A
 Frequencies --   1345.0208              1401.5692              1438.0084
 Red. masses --      1.4592                 1.4222                 2.0614
 Frc consts  --      1.5553                 1.6461                 2.5115
 IR Inten    --     79.7461                38.4032               514.4297

                     40                     41                     42
                      A                      A                      A
 Frequencies --   1461.2750              1480.9623              1482.4283
 Red. masses --      1.5015                 1.2120                 1.0693
 Frc consts  --      1.8890                 1.5662                 1.3845
 IR Inten    --    160.2802                44.6582                 9.7039

                     43                     44                     45
                      A                      A                      A
 Frequencies --   1484.2466              1490.9744              1493.7184
 Red. masses --      1.0595                 1.0525                 1.0718
 Frc consts  --      1.3752                 1.3786                 1.4090
 IR Inten    --     21.9246                16.5351                98.5063

                     46                     47                     48
                      A                      A                      A
 Frequencies --   1496.6350              1500.3573              1631.2172
 Red. masses --      1.0660                 1.0608                 1.0972
 Frc consts  --      1.4069                 1.4069                 1.7201
 IR Inten    --     45.8609                44.9119                86.2360

                     49                     50                     51
                      A                      A                      A
 Frequencies --   1705.8656              3044.9651              3064.2540
 Red. masses --     10.6640                 1.0389                 1.0337
 Frc consts  --     18.2835                 5.6756                 5.7188
 IR Inten    --   1053.2796                73.0770                36.2343

                     52                     53                     54
                      A                      A                      A
 Frequencies --   3065.8074              3098.2825              3139.3787
 Red. masses --      1.0306                 1.1027                 1.1035
 Frc consts  --      5.7070                 6.2366                 6.4079
 IR Inten    --     53.2001                36.4107                 9.0027

                     55                     56                     57
                      A                      A                      A
 Frequencies --   3143.7720              3156.8063              3167.5662
 Red. masses --      1.1070                 1.0974                 1.1053
 Frc consts  --      6.4461                 6.4435                 6.5341
 IR Inten    --     33.9705                 8.0175                11.5046

                     58                     59                     60
                      A                      A                      A
 Frequencies --   3174.4281              3517.8328              3610.5069
 Red. masses --      1.1059                 1.0503                 1.0979
 Frc consts  --      6.5659                 7.6577                 8.4326
 IR Inten    --     20.9298                50.3826                86.8227

 - Thermochemistry -
 -------------------
 Temperature   298.150 Kelvin.  Pressure   1.00000 Atm.
 Atom     1 has atomic number  6 and mass  12.00000

 Molecular mass:   242.96617 amu.
 Principal axes and moments of inertia in atomic units:
                           1         2         3
     Eigenvalues --  2331.557203014.098023777.62264
           X            0.99427   0.10686   0.00358
           Y           -0.10675   0.99403  -0.02258
           Z           -0.00597   0.02207   0.99974
 This molecule is an asymmetric top.
 Rotational symmetry number  1.
 Warning -- assumption of classical behavior for rotation
           may cause significant error
 Rotational temperatures (Kelvin)      0.03715     0.02874     0.02293
 Rotational constants (GHZ):           0.77405     0.59877     0.47775
    1 imaginary frequencies ignored.
 Zero-point vibrational energy     449590.2 (Joules/Mol)
                                  107.45465 (Kcal/Mol)
 Warning -- explicit consideration of  19 degrees of freedom as
           vibrations may cause significant error
 Vibrational temperatures:     74.68   100.40   125.50   144.99   165.40
          (Kelvin)            191.69   226.43   230.50   254.10   273.07
                              311.96   377.41   379.24   410.52   467.91
                              503.77   561.16   685.67   813.51   930.64
                             1042.29  1128.24  1149.86  1273.60  1413.26
                             1457.46  1494.34  1510.83  1539.84  1561.73
                             1687.92  1702.19  1733.37  1753.70  1918.10
                             1935.18  2016.55  2068.97  2102.45  2130.77
                             2132.88  2135.50  2145.18  2149.13  2153.32
                             2158.68  2346.96  2454.36  4381.03  4408.78
                             4411.01  4457.74  4516.87  4523.19  4541.94
                             4557.42  4567.29  5061.38  5194.71

 Zero-point correction=                           0.171240 (Hartree/Particle)
 Thermal correction to Energy=                    0.185201
 Thermal correction to Enthalpy=                  0.186145
 Thermal correction to Gibbs Free Energy=         0.129409
 Sum of electronic and zero-point Energies=          -3474.702514
 Sum of electronic and thermal Energies=             -3474.688554
 Sum of electronic and thermal Enthalpies=           -3474.687610
 Sum of electronic and thermal Free Energies=        -3474.744345

                     E (Thermal)             CV                S
                      KCal/Mol        Cal/Mol-Kelvin    Cal/Mol-Kelvin
 Total                  116.215             46.873            119.411
 Electronic               0.000              0.000              0.000
 Translational            0.889              2.981             42.364
 Rotational               0.889              2.981             31.652
 Vibrational            114.438             40.911             45.395
 Vibration     1          0.596              1.977              4.743
 Vibration     2          0.598              1.969              4.160
 Vibration     3          0.601              1.958              3.721
 Vibration     4          0.604              1.948              3.439
 Vibration     5          0.608              1.937              3.183
 Vibration     6          0.613              1.920              2.899
 Vibration     7          0.621              1.894              2.581
 Vibration     8          0.622              1.891              2.547
 Vibration     9          0.628              1.871              2.364
 Vibration    10          0.633              1.854              2.230
 Vibration    11          0.646              1.815              1.985
 Vibration    12          0.670              1.742              1.646
 Vibration    13          0.670              1.740              1.638
 Vibration    14          0.683              1.701              1.502
 Vibration    15          0.709              1.625              1.284
 Vibration    16          0.727              1.575              1.166
 Vibration    17          0.758              1.491              1.000
 Vibration    18          0.833              1.302              0.719
 Vibration    19          0.921              1.106              0.513

 Optimization completed.
    -- Stationary point found.
 Normal termination of Gaussian 16 at Sun Feb 28 15:53:46 2021.
