 Gaussian 16, Revision A.03,
 Gaussian 16:  ES64L-G16RevA.03 25-Dec-2016

 ----------------------------------------------------------------------
 # wB97XD def2tzvp, opt=(ts, noeigen, calcfc, maxcycles=70, maxstep=1),
  freq=noraman, scrf=(iefpcm, solvent=water)
 ----------------------------------------------------------------------

 ------------------------
 0_iteration/TS-909-0.out
 ------------------------
 Symbolic Z-matrix:
 Charge =  0 Multiplicity = 1

 SCF Done:  E(RwB97XD) =  -3455.02055741     A.U. after   15 cycles
 SCF Done:  E(RwB97XD) =  -3455.02053409     A.U. after   10 cycles
 SCF Done:  E(RwB97XD) =  -3455.02051585     A.U. after   10 cycles
 SCF Done:  E(RwB97XD) =  -3455.02050244     A.U. after   10 cycles
 SCF Done:  E(RwB97XD) =  -3455.02049371     A.U. after   10 cycles
 SCF Done:  E(RwB97XD) =  -3455.02048970     A.U. after   10 cycles
 SCF Done:  E(RwB97XD) =  -3455.02049085     A.U. after   10 cycles
 SCF Done:  E(RwB97XD) =  -3455.02049779     A.U. after    9 cycles
 SCF Done:  E(RwB97XD) =  -3455.02051107     A.U. after    9 cycles
 SCF Done:  E(RwB97XD) =  -3455.02052975     A.U. after    9 cycles
 SCF Done:  E(RwB97XD) =  -3455.02129213     A.U. after    9 cycles
 SCF Done:  E(RwB97XD) =  -3455.02130871     A.U. after    9 cycles
 SCF Done:  E(RwB97XD) =  -3455.02132157     A.U. after    9 cycles
 SCF Done:  E(RwB97XD) =  -3455.02133093     A.U. after    9 cycles
 SCF Done:  E(RwB97XD) =  -3455.02133694     A.U. after    9 cycles
 SCF Done:  E(RwB97XD) =  -3455.02133993     A.U. after    9 cycles
 SCF Done:  E(RwB97XD) =  -3455.02134080     A.U. after    9 cycles
 SCF Done:  E(RwB97XD) =  -3455.02134103     A.U. after    8 cycles
 SCF Done:  E(RwB97XD) =  -3455.02134106     A.U. after    8 cycles
 Optimization completed.
    -- Stationary point found.
 Normal termination of Gaussian 16 at Sun Feb 28 00:29:06 2021.

 ---------------------------------------------------------------------
 #N Geom=AllCheck Guess=TCheck SCRF=Check GenChk RwB97XD/def2TZVP Freq
 ---------------------------------------------------------------------

 Structure from the checkpoint file:  "/beegfs/scratch/user/q/tla25/Gau-86820.chk"
 ------------------------
 0_iteration/TS-909-0.out
 ------------------------
 Charge =  0 Multiplicity = 1

                         Standard orientation:
 ---------------------------------------------------------------------
 Center     Atomic      Atomic             Coordinates (Angstroms)
 Number     Number       Type             X           Y           Z
 ---------------------------------------------------------------------
      1          6           0        0.164864    0.038554   -0.307042
      2          6           0        1.450341    0.720496   -0.351938
      3          8           0        1.565399    1.918454   -0.646834
      4          6           0       -1.074014    0.665565   -0.413213
      5          6           0       -0.937328    1.442786    2.258775
      6          1           0       -0.917577    2.514905    2.079891
      7          1           0       -1.236933    1.253996    3.288620
      8          1           0        0.060519    1.033049    2.094937
      9          7           0       -1.849833    0.807209    1.315613
     10          1           0       -2.038127   -0.154120    1.577957
     11          1           0       -2.738866    1.290262    1.250771
     12         17           0       -2.416609   -0.315596   -1.119887
     13          6           0       -1.204810    2.090807   -0.881346
     14          1           0       -0.582120    2.748495   -0.283916
     15          1           0       -0.867169    2.163568   -1.913770
     16          1           0       -2.246474    2.402709   -0.829961
     17         35           0        0.150296   -1.811346    0.216980
     18          7           0        2.566445   -0.003585   -0.078176
     19          6           0        3.879604    0.590260   -0.140790
     20          1           0        2.485440   -0.971309    0.170527
     21          1           0        4.614952   -0.174524    0.100683
     22          1           0        4.094734    0.980008   -1.137865
     23          1           0        3.982191    1.411390    0.571835
 ---------------------------------------------------------------------

 SCF Done:  E(RwB97XD) =  -3455.02134106     A.U. after    1 cycles

 The electronic state is 1-A.
 Alpha  occ. eigenvalues -- -483.12686-101.69519 -62.67519 -56.46618 -56.46291
 Alpha  occ. eigenvalues --  -56.46281 -19.19698 -14.49401 -14.44326 -10.40883
 Alpha  occ. eigenvalues --  -10.38182 -10.31984 -10.30814 -10.30567 -10.28652
 Alpha  occ. eigenvalues --   -9.58130  -8.81631  -7.32750  -7.31925  -7.31884
 Alpha  occ. eigenvalues --   -6.63726  -6.62682  -6.62652  -2.74124  -2.73824
 Alpha  occ. eigenvalues --   -2.73798  -2.72955  -2.72953  -1.12735  -1.05216
 Alpha  occ. eigenvalues --   -1.01125  -0.97580  -0.90595  -0.85729  -0.81020
 Alpha  occ. eigenvalues --   -0.79396  -0.77630  -0.69014  -0.65545  -0.63862
 Alpha  occ. eigenvalues --   -0.59162  -0.58149  -0.56001  -0.55232  -0.53554
 Alpha  occ. eigenvalues --   -0.52949  -0.50690  -0.50028  -0.48832  -0.47377
 Alpha  occ. eigenvalues --   -0.46865  -0.46512  -0.45158  -0.44838  -0.40881
 Alpha  occ. eigenvalues --   -0.39343  -0.39053  -0.37177  -0.33299  -0.33174
 Alpha  occ. eigenvalues --   -0.27468
 Alpha virt. eigenvalues --    0.04624   0.07249   0.10146   0.10879   0.12672
 Alpha virt. eigenvalues --    0.14157   0.15079   0.15215   0.15961   0.17089
 Alpha virt. eigenvalues --    0.18134   0.19566   0.20223   0.21028   0.21333

 Mulliken charges:
               1
     1  C   -0.268307
     2  C    0.379848
     3  O   -0.550885
     4  C    0.138339
     5  C   -0.306256
     6  H    0.162708
     7  H    0.163746
     8  H    0.158151
     9  N   -0.312463
    10  H    0.286286
    11  H    0.294090
    12  Cl  -0.130657
    13  C   -0.352729
    14  H    0.150311
    15  H    0.147739
    16  H    0.144199
    17  Br  -0.171007
    18  N   -0.323619
    19  C   -0.244735
    20  H    0.247790
    21  H    0.138621
    22  H    0.124499
    23  H    0.124330
 Sum of Mulliken charges =  -0.00000

 Dipole moment (field-independent basis, Debye):
    X=             -3.6007    Y=              0.5679    Z=              5.9338  Tot=              6.9640
 Quadrupole moment (field-independent basis, Debye-Ang):
   XX=            -73.8618   YY=            -90.4318   ZZ=            -81.6255
   XY=            -13.7002   XZ=             -5.9659   YZ=              4.9139

  Exact polarizability: 207.555  -2.530 177.504  -2.002  -1.509 148.677
 Approx polarizability: 158.506  -0.206 151.692  -0.991  -2.837 127.271

 ******    1 imaginary frequencies (negative Signs) ******

                      1                      2                      3
                      A                      A                      A
 Frequencies --   -362.9801                37.8704                52.2686
 Red. masses --      5.6666                 3.6752                 2.4276
 Frc consts  --      0.4399                 0.0031                 0.0039
 IR Inten    --    704.1516                23.5823                 2.6614

                      4                      5                      6
                      A                      A                      A
 Frequencies --     60.8633                79.2212               122.2491
 Red. masses --      2.2780                 2.6465                 1.9042
 Frc consts  --      0.0050                 0.0098                 0.0168
 IR Inten    --      8.3262                 4.7378                 4.6243

                      7                      8                      9
                      A                      A                      A
 Frequencies --    134.9903               153.6147               173.7650
 Red. masses --      2.2596                 5.2121                15.2598
 Frc consts  --      0.0243                 0.0725                 0.2715
 IR Inten    --     16.1780                 5.7253                 4.4213

                     10                     11                     12
                      A                      A                      A
 Frequencies --    183.1099               209.0957               279.4612
 Red. masses --      1.2382                 4.4340                 1.4533
 Frc consts  --      0.0245                 0.1142                 0.0669
 IR Inten    --      4.4218                15.7111                 0.6975

                     13                     14                     15
                      A                      A                      A
 Frequencies --    291.3626               304.1042               312.0350
 Red. masses --      2.7715                 4.6081                 2.1890
 Frc consts  --      0.1386                 0.2511                 0.1256
 IR Inten    --      6.6959                16.9152                 8.8650

                     16                     17                     18
                      A                      A                      A
 Frequencies --    335.5511               355.6873               366.6265
 Red. masses --      3.8586                 3.4643                 1.3117
 Frc consts  --      0.2560                 0.2582                 0.1039
 IR Inten    --     25.3441                10.4113                74.4295

                     19                     20                     21
                      A                      A                      A
 Frequencies --    396.1940               462.6248               525.5339
 Red. masses --      7.4556                 3.9901                 4.4769
 Frc consts  --      0.6895                 0.5031                 0.7285
 IR Inten    --     23.4375                39.1003                96.6334

                     22                     23                     24
                      A                      A                      A
 Frequencies --    651.1802               713.9483               770.8971
 Red. masses --      2.5539                 1.8186                 7.8567
 Frc consts  --      0.6381                 0.5462                 2.7509
 IR Inten    --     76.1147               131.4328                31.9305

                     25                     26                     27
                      A                      A                      A
 Frequencies --    794.7994               966.1831              1002.9670
 Red. masses --      4.2247                 4.4604                 1.3060
 Frc consts  --      1.5724                 2.4533                 0.7740
 IR Inten    --     35.6479                57.1324                14.5218

                     28                     29                     30
                      A                      A                      A
 Frequencies --   1025.4060              1045.6437              1065.8620
 Red. masses --      1.7867                 1.1597                 1.5302
 Frc consts  --      1.1069                 0.7471                 1.0242
 IR Inten    --     56.3336                21.8968               115.9542

                     31                     32                     33
                      A                      A                      A
 Frequencies --   1083.4788              1114.5433              1159.2051
 Red. masses --      3.5052                 2.1556                 1.2865
 Frc consts  --      2.4244                 1.5776                 1.0186
 IR Inten    --      1.1754                90.1322                 0.0735

                     34                     35                     36
                      A                      A                      A
 Frequencies --   1176.2181              1187.0160              1227.9786
 Red. masses --      3.5854                 1.9651                 1.3859
 Frc consts  --      2.9225                 1.6314                 1.2313
 IR Inten    --      5.1546                40.7101                40.8894

                     37                     38                     39
                      A                      A                      A
 Frequencies --   1296.0472              1341.6874              1411.5876
 Red. masses --      2.3671                 1.3182                 1.8864
 Frc consts  --      2.3426                 1.3981                 2.2147
 IR Inten    --    392.6738                 8.7988               553.3448

                     40                     41                     42
                      A                      A                      A
 Frequencies --   1430.5869              1454.2210              1459.7556
 Red. masses --      1.7913                 1.1437                 1.2367
 Frc consts  --      2.1600                 1.4251                 1.5527
 IR Inten    --    302.6777                44.5046                 8.5563

                     43                     44                     45
                      A                      A                      A
 Frequencies --   1463.2297              1473.8375              1489.6594
 Red. masses --      1.1138                 1.0397                 1.1427
 Frc consts  --      1.4050                 1.3306                 1.4940
 IR Inten    --      7.5358                12.5578                41.9997

                     46                     47                     48
                      A                      A                      A
 Frequencies --   1495.8270              1503.4537              1507.0143
 Red. masses --      1.0559                 1.0378                 1.0826
 Frc consts  --      1.3920                 1.3821                 1.4486
 IR Inten    --     53.3078                15.1226                22.9898

                     49                     50                     51
                      A                      A                      A
 Frequencies --   1552.3653              1641.8874              1644.2409
 Red. masses --      1.9238                 1.1017                 7.0213
 Frc consts  --      2.7315                 1.7498                11.1840
 IR Inten    --    714.1145                92.7158               467.4117

                     52                     53                     54
                      A                      A                      A
 Frequencies --   3047.4133              3069.5425              3086.2764
 Red. masses --      1.0357                 1.0344                 1.0370
 Frc consts  --      5.6670                 5.7421                 5.8197
 IR Inten    --     86.2912                30.1880                17.0221

                     55                     56                     57
                      A                      A                      A
 Frequencies --   3102.7579              3146.3950              3156.9880
 Red. masses --      1.1044                 1.1035                 1.1012
 Frc consts  --      6.2645                 6.4367                 6.4664
 IR Inten    --     47.6220                 7.8267                25.0148

                     58                     59                     60
                      A                      A                      A
 Frequencies --   3162.7923              3175.3574              3196.0849
 Red. masses --      1.1034                 1.1055                 1.1011
 Frc consts  --      6.5029                 6.5675                 6.6269
 IR Inten    --     13.6329                12.3345                 2.7615

                     61                     62                     63
                      A                      A                      A
 Frequencies --   3521.1633              3603.1291              3687.9941
 Red. masses --      1.0510                 1.0964                 1.0779
 Frc consts  --      7.6777                 8.3866                 8.6380
 IR Inten    --     54.1179                59.7790                85.5007

 - Thermochemistry -
 -------------------
 Temperature   298.150 Kelvin.  Pressure   1.00000 Atm.
 Atom     1 has atomic number  6 and mass  12.00000

 Molecular mass:   241.98215 amu.
 Principal axes and moments of inertia in atomic units:
                           1         2         3
     Eigenvalues --  2270.474933205.860464168.33186
           X            0.99938  -0.02489  -0.02490
           Y            0.02576   0.99904   0.03538
           Z            0.02399  -0.03600   0.99906
 This molecule is an asymmetric top.
 Rotational symmetry number  1.
 Warning -- assumption of classical behavior for rotation
           may cause significant error
 Rotational temperatures (Kelvin)      0.03815     0.02702     0.02078
 Rotational constants (GHZ):           0.79487     0.56295     0.43296
    1 imaginary frequencies ignored.
 Zero-point vibrational energy     484145.8 (Joules/Mol)
                                  115.71361 (Kcal/Mol)
 Warning -- explicit consideration of  20 degrees of freedom as
           vibrations may cause significant error
 Vibrational temperatures:     54.49    75.20    87.57   113.98   175.89
          (Kelvin)            194.22   221.02   250.01   263.45   300.84
                              402.08   419.21   437.54   448.95   482.78
                              511.75   527.49   570.03   665.61   756.13
                              936.90  1027.21  1109.15  1143.54  1390.12
                             1443.05  1475.33  1504.45  1533.54  1558.88
                             1603.58  1667.84  1692.32  1707.85  1766.79
                             1864.72  1930.39  2030.96  2058.30  2092.30
                             2100.26  2105.26  2120.52  2143.29  2152.16
                             2163.13  2168.26  2233.51  2362.31  2365.70
                             4384.55  4416.39  4440.46  4464.18  4526.96
                             4542.20  4550.55  4568.63  4598.45  5066.17
                             5184.10  5306.20

 Zero-point correction=                           0.184401 (Hartree/Particle)
 Thermal correction to Energy=                    0.198582
 Thermal correction to Enthalpy=                  0.199526
 Thermal correction to Gibbs Free Energy=         0.141809
 Sum of electronic and zero-point Energies=          -3454.836940
 Sum of electronic and thermal Energies=             -3454.822759
 Sum of electronic and thermal Enthalpies=           -3454.821815
 Sum of electronic and thermal Free Energies=        -3454.879532

                     E (Thermal)             CV                S
                      KCal/Mol        Cal/Mol-Kelvin    Cal/Mol-Kelvin
 Total                  124.612             48.156            121.475
 Electronic               0.000              0.000              0.000
 Translational            0.889              2.981             42.352
 Rotational               0.889              2.981             31.784
 Vibrational            122.835             42.194             47.339
 Vibration     1          0.594              1.982              5.367
 Vibration     2          0.596              1.977              4.730
 Vibration     3          0.597              1.973              4.429
 Vibration     4          0.600              1.963              3.910
 Vibration     5          0.610              1.931              3.065
 Vibration     6          0.613              1.918              2.874
 Vibration     7          0.619              1.899              2.627
 Vibration     8          0.627              1.875              2.394
 Vibration     9          0.631              1.863              2.296
 Vibration    10          0.642              1.827              2.052
 Vibration    11          0.680              1.712              1.537
 Vibration    12          0.687              1.690              1.466
 Vibration    13          0.695              1.666              1.394
 Vibration    14          0.700              1.651              1.352
 Vibration    15          0.717              1.605              1.233
 Vibration    16          0.731              1.564              1.141
 Vibration    17          0.740              1.541              1.094
 Vibration    18          0.763              1.478              0.977
 Vibration    19          0.820              1.333              0.759
 Vibration    20          0.880              1.193              0.597

 Optimization completed.
    -- Stationary point found.
 Normal termination of Gaussian 16 at Sun Feb 28 00:56:53 2021.
