 Gaussian 16, Revision A.03,
 Gaussian 16:  ES64L-G16RevA.03 25-Dec-2016

 ----------------------------------------------------------------------
 # wB97XD def2tzvp, opt=(ts, noeigen, calcfc, maxcycles=70, maxstep=8),
  freq=noraman, scrf=(iefpcm, solvent=water)
 ----------------------------------------------------------------------

 ------------------------
 1_iteration/TS-914-1.out
 ------------------------
 Symbolic Z-matrix:
 Charge =  0 Multiplicity = 1

 SCF Done:  E(RwB97XD) =  -1285.64289852     A.U. after   15 cycles
 SCF Done:  E(RwB97XD) =  -1285.64289853     A.U. after    6 cycles
 Optimization completed.
    -- Stationary point found.
 Normal termination of Gaussian 16 at Wed Apr 14 22:53:33 2021.

 ---------------------------------------------------------------------
 #N Geom=AllCheck Guess=TCheck SCRF=Check GenChk RwB97XD/def2TZVP Freq
 ---------------------------------------------------------------------

 Structure from the checkpoint file:  "/beegfs/scratch/user/q/tla25/Gau-186443.chk"
 ------------------------
 1_iteration/TS-914-1.out
 ------------------------
 Charge =  0 Multiplicity = 1

                         Standard orientation:
 ---------------------------------------------------------------------
 Center     Atomic      Atomic             Coordinates (Angstroms)
 Number     Number       Type             X           Y           Z
 ---------------------------------------------------------------------
      1          6           0        0.770005   -0.135377   -0.130804
      2          6           0        1.858127    0.800185   -0.071615
      3          8           0        1.732376    1.998496   -0.341468
      4          6           0       -0.550235    0.194779   -0.450753
      5          6           0       -2.885195    0.815288    1.313566
      6          1           0       -3.257952    0.830676    2.338690
      7          1           0       -3.023751    1.800039    0.872922
      8          1           0       -3.452482    0.084073    0.740341
      9          7           0       -1.468415    0.459642    1.266365
     10          1           0       -0.889239    1.166517    1.705659
     11          1           0       -1.291725   -0.418574    1.741356
     12         17           0       -1.570845   -1.130078   -1.055733
     13          6           0       -0.910728    1.488723   -1.121386
     14          1           0       -0.551574    2.332918   -0.542044
     15          1           0       -0.431213    1.527155   -2.099698
     16          1           0       -1.987980    1.549682   -1.258687
     17         17           0        1.074286   -1.766882    0.460906
     18          6           0        3.226321    0.285092    0.326243
     19          1           0        3.531283   -0.561440   -0.290069
     20          1           0        3.942494    1.096398    0.216339
     21          1           0        3.223773   -0.056737    1.362928
 ---------------------------------------------------------------------

 SCF Done:  E(RwB97XD) =  -1285.64289853     A.U. after    1 cycles

 The electronic state is 1-A.
 Alpha  occ. eigenvalues -- -101.70184-101.69022 -19.21062 -14.48567 -10.41205
 Alpha  occ. eigenvalues --  -10.36453 -10.31898 -10.31546 -10.28844 -10.27309
 Alpha  occ. eigenvalues --   -9.58787  -9.57566  -7.33422  -7.32585  -7.32522
 Alpha  occ. eigenvalues --   -7.32193  -7.31357  -7.31340  -1.12059  -1.04438
 Alpha  occ. eigenvalues --   -0.99143  -0.94579  -0.86530  -0.83532  -0.79778
 Alpha  occ. eigenvalues --   -0.78138  -0.69485  -0.63278  -0.60686  -0.57309
 Alpha  occ. eigenvalues --   -0.56417  -0.56127  -0.54788  -0.52128  -0.50821
 Alpha  occ. eigenvalues --   -0.49839  -0.49235  -0.48105  -0.46733  -0.46446
 Alpha  occ. eigenvalues --   -0.45523  -0.43477  -0.42059  -0.41080  -0.39296
 Alpha  occ. eigenvalues --   -0.38314  -0.32478  -0.28029
 Alpha virt. eigenvalues --    0.03170   0.07123   0.10077   0.12993   0.13515
 Alpha virt. eigenvalues --    0.13723   0.14803   0.15438   0.17278   0.18805
 Alpha virt. eigenvalues --    0.19283   0.19686   0.20141   0.20585   0.21935

 Mulliken charges:
               1
     1  C   -0.112105
     2  C    0.257255
     3  O   -0.506422
     4  C    0.105113
     5  C   -0.286573
     6  H    0.156868
     7  H    0.161446
     8  H    0.149368
     9  N   -0.353725
    10  H    0.287549
    11  H    0.282398
    12  Cl  -0.099615
    13  C   -0.369028
    14  H    0.152886
    15  H    0.155011
    16  H    0.154729
    17  Cl  -0.165978
    18  C   -0.373819
    19  H    0.139802
    20  H    0.124398
    21  H    0.140443
 Sum of Mulliken charges =  -0.00000

 Dipole moment (field-independent basis, Debye):
    X=             -5.7509    Y=              0.5587    Z=              4.1822  Tot=              7.1327
 Quadrupole moment (field-independent basis, Debye-Ang):
   XX=            -68.6389   YY=            -83.6872   ZZ=            -68.4304
   XY=             -9.2902   XZ=             -4.4615   YZ=              2.2963

  Exact polarizability: 194.628   5.810 154.831  -4.444  -2.142 127.428
 Approx polarizability: 142.416   5.305 135.528  -2.158  -1.915 111.617

 ******    1 imaginary frequencies (negative Signs) ******

                      1                      2                      3
                      A                      A                      A
 Frequencies --   -352.9119                42.1589                68.7870
 Red. masses --      6.1837                 6.7184                 3.2686
 Frc consts  --      0.4538                 0.0070                 0.0091
 IR Inten    --    846.4460                 3.0849                 5.7720

                      4                      5                      6
                      A                      A                      A
 Frequencies --     77.8964               121.5369               174.2443
 Red. masses --      1.9703                 5.3893                 1.4547
 Frc consts  --      0.0070                 0.0469                 0.0260
 IR Inten    --      4.1255                12.1254                 2.1778

                      7                      8                      9
                      A                      A                      A
 Frequencies --    177.2392               200.4645               225.1648
 Red. masses --      1.1096                 3.7280                 3.0600
 Frc consts  --      0.0205                 0.0883                 0.0914
 IR Inten    --      0.9873                20.5623                 3.7205

                     10                     11                     12
                      A                      A                      A
 Frequencies --    230.6931               261.7063               274.7357
 Red. masses --      2.8040                 1.8185                 2.3843
 Frc consts  --      0.0879                 0.0734                 0.1060
 IR Inten    --      7.4252                 3.4901                 3.8169

                     13                     14                     15
                      A                      A                      A
 Frequencies --    336.0301               354.3337               360.6946
 Red. masses --      3.4569                 3.4209                 3.4036
 Frc consts  --      0.2300                 0.2531                 0.2609
 IR Inten    --     15.5061                 1.9710                 3.2681

                     16                     17                     18
                      A                      A                      A
 Frequencies --    452.5919               469.7161               510.1538
 Red. masses --      6.5433                 4.3770                 4.8531
 Frc consts  --      0.7897                 0.5690                 0.7442
 IR Inten    --      6.7626               116.5312                31.6395

                     19                     20                     21
                      A                      A                      A
 Frequencies --    582.9493               627.3324               661.7204
 Red. masses --      4.0233                 2.9565                 1.3972
 Frc consts  --      0.8056                 0.6855                 0.3605
 IR Inten    --     62.8008                60.7453                27.7309

                     22                     23                     24
                      A                      A                      A
 Frequencies --    756.2243               967.0072               989.5249
 Red. masses --      3.3646                 2.9900                 2.2253
 Frc consts  --      1.1337                 1.6473                 1.2838
 IR Inten    --     71.0149                60.4348                44.3318

                     25                     26                     27
                      A                      A                      A
 Frequencies --   1017.6728              1024.7256              1042.0680
 Red. masses --      1.2012                 1.4655                 1.6665
 Frc consts  --      0.7330                 0.9067                 1.0662
 IR Inten    --      7.1600               314.5083                 5.9606

                     28                     29                     30
                      A                      A                      A
 Frequencies --   1048.1654              1062.7868              1086.4099
 Red. masses --      1.5880                 1.4948                 3.0006
 Frc consts  --      1.0279                 0.9948                 2.0866
 IR Inten    --     13.6096                70.2323                55.5852

                     31                     32                     33
                      A                      A                      A
 Frequencies --   1135.1015              1225.5115              1312.6068
 Red. masses --      2.8332                 1.3921                 4.1744
 Frc consts  --      2.1508                 1.2318                 4.2375
 IR Inten    --     56.0152                23.4302               129.7018

                     34                     35                     36
                      A                      A                      A
 Frequencies --   1346.7459              1379.5604              1402.0567
 Red. masses --      1.3100                 1.8242                 1.8741
 Frc consts  --      1.3999                 2.0455                 2.1706
 IR Inten    --      5.9247               419.1908               829.5110

                     37                     38                     39
                      A                      A                      A
 Frequencies --   1425.8169              1455.8309              1458.2858
 Red. masses --      1.4949                 1.1167                 1.0800
 Frc consts  --      1.7905                 1.3944                 1.3531
 IR Inten    --    227.9939                55.9673                34.9797

                     40                     41                     42
                      A                      A                      A
 Frequencies --   1463.0691              1471.5439              1481.7256
 Red. masses --      1.1451                 1.0492                 1.0801
 Frc consts  --      1.4442                 1.3386                 1.3972
 IR Inten    --     26.2653                19.5701                51.5239

                     43                     44                     45
                      A                      A                      A
 Frequencies --   1495.5501              1506.5148              1641.9806
 Red. masses --      1.0440                 1.0328                 1.1000
 Frc consts  --      1.3758                 1.3811                 1.7474
 IR Inten    --     10.5180                18.7794                51.8288

                     46                     47                     48
                      A                      A                      A
 Frequencies --   1662.4452              3064.1450              3068.0256
 Red. masses --      8.2766                 1.0364                 1.0356
 Frc consts  --     13.4772                 5.7330                 5.7435
 IR Inten    --    427.3449                 8.4544                46.0601

                     49                     50                     51
                      A                      A                      A
 Frequencies --   3084.1740              3135.6295              3145.8395
 Red. masses --      1.0371                 1.0999                 1.1020
 Frc consts  --      5.8124                 6.3715                 6.4253
 IR Inten    --     10.1478                11.4776                12.5730

                     52                     53                     54
                      A                      A                      A
 Frequencies --   3159.3287              3167.0640              3173.0346
 Red. masses --      1.1015                 1.1042                 1.1058
 Frc consts  --      6.4775                 6.5257                 6.5596
 IR Inten    --     13.6564                25.8282                12.7196

                     55                     56                     57
                      A                      A                      A
 Frequencies --   3195.0986              3519.7503              3600.6060
 Red. masses --      1.1028                 1.0510                 1.0963
 Frc consts  --      6.6330                 7.6714                 8.3740
 IR Inten    --      1.7359                24.8319                46.8325

 - Thermochemistry -
 -------------------
 Temperature   298.150 Kelvin.  Pressure   1.00000 Atm.
 Atom     1 has atomic number  6 and mass  12.00000

 Molecular mass:   183.02177 amu.
 Principal axes and moments of inertia in atomic units:
                           1         2         3
     Eigenvalues --  1470.700902504.309793037.69106
           X            0.99886  -0.04110  -0.02440
           Y            0.04095   0.99914  -0.00648
           Z            0.02465   0.00548   0.99968
 This molecule is an asymmetric top.
 Rotational symmetry number  1.
 Warning -- assumption of classical behavior for rotation
           may cause significant error
 Rotational temperatures (Kelvin)      0.05889     0.03459     0.02851
 Rotational constants (GHZ):           1.22713     0.72065     0.59412
    1 imaginary frequencies ignored.
 Zero-point vibrational energy     438920.5 (Joules/Mol)
                                  104.90452 (Kcal/Mol)
 Warning -- explicit consideration of  18 degrees of freedom as
           vibrations may cause significant error
 Vibrational temperatures:     60.66    98.97   112.08   174.86   250.70
          (Kelvin)            255.01   288.42   323.96   331.92   376.54
                              395.28   483.47   509.81   518.96   651.18
                              675.82   734.00   838.73   902.59   952.07
                             1088.04  1391.31  1423.71  1464.20  1474.35
                             1499.30  1508.08  1529.11  1563.10  1633.16
                             1763.24  1888.55  1937.67  1984.88  2017.25
                             2051.43  2094.62  2098.15  2105.03  2117.22
                             2131.87  2151.76  2167.54  2362.44  2391.89
                             4408.62  4414.20  4437.44  4511.47  4526.16
                             4545.57  4556.70  4565.29  4597.03  5064.14
                             5180.47

 Zero-point correction=                           0.167176 (Hartree/Particle)
 Thermal correction to Energy=                    0.179579
 Thermal correction to Enthalpy=                  0.180524
 Thermal correction to Gibbs Free Energy=         0.127942
 Sum of electronic and zero-point Energies=          -1285.475723
 Sum of electronic and thermal Energies=             -1285.463319
 Sum of electronic and thermal Enthalpies=           -1285.462375
 Sum of electronic and thermal Free Energies=        -1285.514956

                     E (Thermal)             CV                S
                      KCal/Mol        Cal/Mol-Kelvin    Cal/Mol-Kelvin
 Total                  112.688             43.207            110.667
 Electronic               0.000              0.000              0.000
 Translational            0.889              2.981             41.520
 Rotational               0.889              2.981             30.793
 Vibrational            110.910             37.246             38.354
 Vibration     1          0.595              1.980              5.155
 Vibration     2          0.598              1.969              4.188
 Vibration     3          0.599              1.964              3.943
 Vibration     4          0.609              1.931              3.076
 Vibration     5          0.627              1.874              2.389
 Vibration     6          0.628              1.870              2.357
 Vibration     7          0.638              1.839              2.129
 Vibration     8          0.650              1.803              1.917
 Vibration     9          0.652              1.794              1.874
 Vibration    10          0.669              1.743              1.650
 Vibration    11          0.677              1.720              1.566
 Vibration    12          0.717              1.604              1.231
 Vibration    13          0.730              1.566              1.147
 Vibration    14          0.735              1.553              1.119
 Vibration    15          0.811              1.355              0.788
 Vibration    16          0.827              1.317              0.738
 Vibration    17          0.865              1.227              0.633
 Vibration    18          0.940              1.068              0.480

 Optimization completed.
    -- Stationary point found.
 Normal termination of Gaussian 16 at Wed Apr 14 22:59:55 2021.
