 Gaussian 16, Revision A.03,
 Gaussian 16:  ES64L-G16RevA.03 25-Dec-2016

 ----------------------------------------------------------------------
 # wB97XD def2tzvp, opt=(ts, noeigen, calcfc, maxcycles=70, maxstep=8),
  freq=noraman, scrf=(iefpcm, solvent=water)
 ----------------------------------------------------------------------

 -----------------------
 1_iteration/TS-96-1.out
 -----------------------
 Symbolic Z-matrix:
 Charge =  0 Multiplicity = 1

 SCF Done:  E(RwB97XD) =  -789.217775190     A.U. after   15 cycles
 SCF Done:  E(RwB97XD) =  -789.217929858     A.U. after   12 cycles
 SCF Done:  E(RwB97XD) =  -789.218040576     A.U. after   12 cycles
 SCF Done:  E(RwB97XD) =  -789.218049382     A.U. after   10 cycles
 SCF Done:  E(RwB97XD) =  -789.218049688     A.U. after    9 cycles
 SCF Done:  E(RwB97XD) =  -789.218049723     A.U. after    7 cycles
 Optimization completed.
    -- Stationary point found.
 Normal termination of Gaussian 16 at Sun Jan 31 06:17:18 2021.

 ---------------------------------------------------------------------
 #N Geom=AllCheck Guess=TCheck SCRF=Check GenChk RwB97XD/def2TZVP Freq
 ---------------------------------------------------------------------

 Structure from the checkpoint file:  "/beegfs/scratch/user/q/tla25/Gau-84065.chk"
 -----------------------
 1_iteration/TS-96-1.out
 -----------------------
 Charge =  0 Multiplicity = 1

                         Standard orientation:
 ---------------------------------------------------------------------
 Center     Atomic      Atomic             Coordinates (Angstroms)
 Number     Number       Type             X           Y           Z
 ---------------------------------------------------------------------
      1          6           0       -0.247514    0.006756    0.269830
      2          6           0       -1.443524    0.758393    0.314142
      3          8           0       -1.502595    1.999654    0.439966
      4          6           0        1.034697    0.547606    0.505381
      5          6           0        2.490416    2.631710   -1.134068
      6          1           0        2.495454    3.219790   -2.053978
      7          1           0        2.596746    3.308904   -0.289061
      8          1           0        3.340708    1.949307   -1.145990
      9          7           0        1.263363    1.860485   -0.985516
     10          1           0        0.445759    2.436430   -0.808556
     11          1           0        1.074430    1.289063   -1.798890
     12          6           0        2.194744   -0.357724    0.218916
     13          6           0        2.206972   -1.137408   -0.939262
     14          6           0        3.271958   -1.972928   -1.226421
     15          6           0        4.350595   -2.052177   -0.355123
     16          6           0        4.352620   -1.284130    0.797502
     17          6           0        3.287676   -0.438656    1.077691
     18          1           0        1.374922   -1.085033   -1.630846
     19          1           0        3.261781   -2.562721   -2.134207
     20          1           0        5.184022   -2.706376   -0.577128
     21          1           0        5.187370   -1.337174    1.484857
     22          1           0        3.314678    0.150250    1.983885
     23          6           0        1.225941    1.532747    1.632368
     24          1           0        1.222172    0.980345    2.574662
     25          1           0        2.173059    2.065777    1.562447
     26          1           0        0.405760    2.242822    1.651988
     27          1           0       -0.304779   -0.997713   -0.122770
     28          6           0       -2.741929    0.011856    0.125892
     29          6           0       -3.831205    0.684389   -0.422340
     30          6           0       -5.043948    0.039224   -0.605922
     31          6           0       -5.189354   -1.288966   -0.227668
     32          6           0       -4.114711   -1.965149    0.332477
     33          6           0       -2.898701   -1.319894    0.503534
     34          1           0       -3.712509    1.722563   -0.704725
     35          1           0       -5.878785    0.572620   -1.043455
     36          1           0       -6.137594   -1.793478   -0.365044
     37          1           0       -4.224287   -2.997344    0.641057
     38          1           0       -2.070098   -1.852548    0.953064
 ---------------------------------------------------------------------

 SCF Done:  E(RwB97XD) =  -789.218049723     A.U. after    1 cycles

 The electronic state is 1-A.
 Alpha  occ. eigenvalues --  -19.20002 -14.46781 -10.35272 -10.34707 -10.31321
 Alpha  occ. eigenvalues --  -10.30530 -10.29447 -10.29442 -10.29361 -10.29314
 Alpha  occ. eigenvalues --  -10.29269 -10.29173 -10.29026 -10.28971 -10.28896
 Alpha  occ. eigenvalues --  -10.28879 -10.28694 -10.27383 -10.24668  -1.10441
 Alpha  occ. eigenvalues --   -1.02570  -0.97452  -0.96360  -0.91432  -0.86429
 Alpha  occ. eigenvalues --   -0.85625  -0.84960  -0.84054  -0.80350  -0.78217
 Alpha  occ. eigenvalues --   -0.73980  -0.71141  -0.70457  -0.69839  -0.66409
 Alpha  occ. eigenvalues --   -0.63474  -0.61845  -0.60517  -0.59339  -0.56377
 Alpha  occ. eigenvalues --   -0.55943  -0.55647  -0.54652  -0.54187  -0.53878
 Alpha  occ. eigenvalues --   -0.52836  -0.51533  -0.50847  -0.50652  -0.50057
 Alpha  occ. eigenvalues --   -0.48652  -0.47825  -0.47395  -0.46924  -0.46656
 Alpha  occ. eigenvalues --   -0.45330  -0.44332  -0.43793  -0.42893  -0.42461
 Alpha  occ. eigenvalues --   -0.42011  -0.40397  -0.34182  -0.33797  -0.33690
 Alpha  occ. eigenvalues --   -0.33369  -0.31719  -0.27433
 Alpha virt. eigenvalues --    0.00437   0.04506   0.04907   0.05439   0.09288
 Alpha virt. eigenvalues --    0.10623   0.12918   0.13426   0.13509   0.14769
 Alpha virt. eigenvalues --    0.15207   0.16296   0.16675   0.17006   0.17139

 Mulliken charges:
               1
     1  C   -0.471269
     2  C    0.352899
     3  O   -0.572315
     4  C    0.294064
     5  C   -0.290201
     6  H    0.149529
     7  H    0.152897
     8  H    0.151413
     9  N   -0.352404
    10  H    0.270920
    11  H    0.264714
    12  C    0.112680
    13  C   -0.273430
    14  C   -0.153514
    15  C   -0.136503
    16  C   -0.144881
    17  C   -0.230694
    18  H    0.167510
    19  H    0.144201
    20  H    0.146213
    21  H    0.144255
    22  H    0.159605
    23  C   -0.438734
    24  H    0.149222
    25  H    0.142881
    26  H    0.163039
    27  H    0.157525
    28  C    0.134757
    29  C   -0.241897
    30  C   -0.132660
    31  C   -0.139286
    32  C   -0.147141
    33  C   -0.247592
    34  H    0.135832
    35  H    0.141121
    36  H    0.144249
    37  H    0.141367
    38  H    0.151627
 Sum of Mulliken charges =  -0.00000

 Dipole moment (field-independent basis, Debye):
    X=              6.3484    Y=             -0.6160    Z=             -3.2536  Tot=              7.1602
 Quadrupole moment (field-independent basis, Debye-Ang):
   XX=            -99.8356   YY=           -107.9691   ZZ=           -108.1009
   XY=             10.3758   XZ=              3.0615   YZ=             -4.6865

  Exact polarizability: 399.881  -7.457 288.219  13.691  -1.560 233.457
 Approx polarizability: 279.309  -9.315 241.388  15.107   0.309 202.750

 ******    1 imaginary frequencies (negative Signs) ******

                      1                      2                      3
                      A                      A                      A
 Frequencies --   -346.3712                36.8472                38.1230
 Red. masses --      5.7067                 3.7253                 4.2175
 Frc consts  --      0.4034                 0.0030                 0.0036
 IR Inten    --    821.1990                 2.1743                 1.9233

                      4                      5                      6
                      A                      A                      A
 Frequencies --     47.0211                55.7908                68.1711
 Red. masses --      4.7591                 2.8109                 3.7852
 Frc consts  --      0.0062                 0.0052                 0.0104
 IR Inten    --      2.9441                 1.2663                 4.1379

                      7                      8                      9
                      A                      A                      A
 Frequencies --    104.0752               115.9090               148.5738
 Red. masses --      5.1791                 1.8203                 3.7376
 Frc consts  --      0.0331                 0.0144                 0.0486
 IR Inten    --     20.8584                 2.6480                 2.9521

                     10                     11                     12
                      A                      A                      A
 Frequencies --    178.6318               193.2142               225.5245
 Red. masses --      4.5743                 1.4966                 4.0410
 Frc consts  --      0.0860                 0.0329                 0.1211
 IR Inten    --      4.8843                13.0517                12.1899

                     13                     14                     15
                      A                      A                      A
 Frequencies --    243.0631               267.9320               297.4874
 Red. masses --      2.7552                 3.4627                 2.2941
 Frc consts  --      0.0959                 0.1465                 0.1196
 IR Inten    --      7.3178                13.5221                 1.6432

                     16                     17                     18
                      A                      A                      A
 Frequencies --    316.5386               334.8240               362.2989
 Red. masses --      5.2534                 1.5200                 3.1559
 Frc consts  --      0.3101                 0.1004                 0.2441
 IR Inten    --     12.5706                 4.6758                12.9137

                     19                     20                     21
                      A                      A                      A
 Frequencies --    401.7445               421.9091               423.4142
 Red. masses --      3.7424                 2.8784                 2.8934
 Frc consts  --      0.3559                 0.3019                 0.3056
 IR Inten    --      4.8090                 0.5640                 1.8275

                     22                     23                     24
                      A                      A                      A
 Frequencies --    439.5011               482.0826               518.6370
 Red. masses --      3.7924                 3.9285                 3.4646
 Frc consts  --      0.4316                 0.5379                 0.5491
 IR Inten    --     11.1914                35.8621                25.4422

                     25                     26                     27
                      A                      A                      A
 Frequencies --    560.4760               587.3973               635.7233
 Red. masses --      3.0529                 4.0550                 6.4004
 Frc consts  --      0.5650                 0.8243                 1.5240
 IR Inten    --     96.3901                17.9561                 0.6193

                     28                     29                     30
                      A                      A                      A
 Frequencies --    637.4442               655.3403               690.3928
 Red. masses --      6.3640                 1.3060                 5.8929
 Frc consts  --      1.5236                 0.3305                 1.6549
 IR Inten    --      0.0714                73.0687                 7.6504

                     31                     32                     33
                      A                      A                      A
 Frequencies --    716.9653               725.3311               726.7920
 Red. masses --      2.0509                 1.3881                 1.6138
 Frc consts  --      0.6211                 0.4303                 0.5022
 IR Inten    --     71.0182                89.4314                72.2201

                     34                     35                     36
                      A                      A                      A
 Frequencies --    745.4385               774.2558               800.7220
 Red. masses --      1.9667                 4.2641                 2.0379
 Frc consts  --      0.6439                 1.5061                 0.7698
 IR Inten    --    191.4405                52.5745                21.5480

                     37                     38                     39
                      A                      A                      A
 Frequencies --    832.6528               879.2273               881.8123
 Red. masses --      2.9818                 1.2493                 1.2503
 Frc consts  --      1.2180                 0.5690                 0.5728
 IR Inten    --     12.2421                 1.7857                 0.4229

                     40                     41                     42
                      A                      A                      A
 Frequencies --    891.4916               951.1986               966.3777
 Red. masses --      4.9477                 2.0701                 1.4449
 Frc consts  --      2.3168                 1.1035                 0.7950
 IR Inten    --    100.6004                53.8381                 0.8625

                     43                     44                     45
                      A                      A                      A
 Frequencies --    973.3147              1010.4923              1015.9605
 Red. masses --      1.5514                 1.1175                 1.2452
 Frc consts  --      0.8659                 0.6723                 0.7573
 IR Inten    --     25.5723                 8.5655                92.7678

                     46                     47                     48
                      A                      A                      A
 Frequencies --   1017.4887              1019.9152              1025.7039
 Red. masses --      1.3665                 1.2351                 5.9051
 Frc consts  --      0.8335                 0.7570                 3.6603
 IR Inten    --      2.1558                97.5246                 1.1022

                     49                     50                     51
                      A                      A                      A
 Frequencies --   1026.4993              1031.3289              1034.0824
 Red. masses --      5.9011                 1.3127                 1.3093
 Frc consts  --      3.6636                 0.8227                 0.8249
 IR Inten    --      1.4910                 0.5165                 1.7864

                     52                     53                     54
                      A                      A                      A
 Frequencies --   1050.3956              1060.0941              1062.1563
 Red. masses --      1.7354                 2.0874                 2.3310
 Frc consts  --      1.1281                 1.3821                 1.5494
 IR Inten    --     83.9498                 6.6713                34.1823

                     55                     56                     57
                      A                      A                      A
 Frequencies --   1089.2379              1107.6440              1111.5519
 Red. masses --      3.5398                 1.5521                 1.8741
 Frc consts  --      2.4745                 1.1219                 1.3643
 IR Inten    --     45.3596                29.0918                14.1575

                     58                     59                     60
                      A                      A                      A
 Frequencies --   1122.5349              1135.9165              1182.2689
 Red. masses --      1.7223                 2.3159                 1.1338
 Frc consts  --      1.2786                 1.7606                 0.9338
 IR Inten    --      5.7673                14.6986                 0.6726

                     61                     62                     63
                      A                      A                      A
 Frequencies --   1186.8993              1198.3687              1203.2541
 Red. masses --      1.1312                 1.3974                 1.1372
 Frc consts  --      0.9389                 1.1823                 0.9700
 IR Inten    --      0.7254                29.6936                17.9176

                     64                     65                     66
                      A                      A                      A
 Frequencies --   1218.3425              1247.4875              1304.8999
 Red. masses --      1.1289                 2.5176                 2.6594
 Frc consts  --      0.9873                 2.3084                 2.6680
 IR Inten    --      5.1977                89.4537               312.8469

                     67                     68                     69
                      A                      A                      A
 Frequencies --   1312.6183              1329.8209              1340.2713
 Red. masses --      4.2076                 3.5237                 1.4069
 Frc consts  --      4.2714                 3.6714                 1.4890
 IR Inten    --     35.1077                16.7745                11.1654

                     70                     71                     72
                      A                      A                      A
 Frequencies --   1351.9448              1355.4880              1365.6330
 Red. masses --      1.9601                 2.1900                 1.3892
 Frc consts  --      2.1108                 2.3708                 1.5265
 IR Inten    --     19.7146               109.0793                 7.1788

                     73                     74                     75
                      A                      A                      A
 Frequencies --   1410.6697              1455.6825              1473.6870
 Red. masses --      1.4503                 1.2612                 1.5499
 Frc consts  --      1.7004                 1.5746                 1.9832
 IR Inten    --     57.1732               221.4343               542.0910

                     76                     77                     78
                      A                      A                      A
 Frequencies --   1488.7867              1493.4846              1495.2329
 Red. masses --      1.4738                 1.1466                 2.0736
 Frc consts  --      1.9247                 1.5068                 2.7314
 IR Inten    --     19.7127                30.7004                75.9672

                     79                     80                     81
                      A                      A                      A
 Frequencies --   1502.6772              1508.1687              1521.0367
 Red. masses --      1.1134                 1.1851                 1.4683
 Frc consts  --      1.4812                 1.5882                 2.0014
 IR Inten    --     16.9454               219.6416               567.4431

                     82                     83                     84
                      A                      A                      A
 Frequencies --   1539.8297              1549.2736              1599.2269
 Red. masses --      2.3088                 2.3740                 7.3419
 Frc consts  --      3.2253                 3.3573                11.0632
 IR Inten    --     69.2219                64.8183               467.8364

                     85                     86                     87
                      A                      A                      A
 Frequencies --   1651.6533              1653.4649              1657.6104
 Red. masses --      1.2236                 3.6925                 6.2077
 Frc consts  --      1.9667                 5.9478                10.0495
 IR Inten    --     52.3839                23.1523                43.4066

                     88                     89                     90
                      A                      A                      A
 Frequencies --   1672.0227              1676.7656              3056.4252
 Red. masses --      5.9182                 5.8364                 1.0360
 Frc consts  --      9.7481                 9.6680                 5.7019
 IR Inten    --      6.7034                 0.7854                66.9047

                     91                     92                     93
                      A                      A                      A
 Frequencies --   3068.5231              3127.5438              3137.5413
 Red. masses --      1.0412                 1.1032                 1.0980
 Frc consts  --      5.7760                 6.3576                 6.3686
 IR Inten    --     26.5615                20.1390                30.5617

                     94                     95                     96
                      A                      A                      A
 Frequencies --   3162.0411              3190.2007              3192.3639
 Red. masses --      1.1032                 1.1011                 1.0857
 Frc consts  --      6.4990                 6.6026                 6.5188
 IR Inten    --     19.8183                 2.6726                 1.2254

                     97                     98                     99
                      A                      A                      A
 Frequencies --   3194.1142              3199.7851              3200.9341
 Red. masses --      1.0867                 1.0884                 1.0885
 Frc consts  --      6.5323                 6.5660                 6.5711
 IR Inten    --      4.7423                 5.8787                 1.6632

                    100                    101                    102
                      A                      A                      A
 Frequencies --   3208.4174              3210.3177              3216.0520
 Red. masses --      1.0920                 1.0928                 1.0943
 Frc consts  --      6.6231                 6.6359                 6.6685
 IR Inten    --     17.9376                25.9500                27.7705

                    103                    104                    105
                      A                      A                      A
 Frequencies --   3220.8647              3221.8182              3225.7246
 Red. masses --      1.0963                 1.0973                 1.0885
 Frc consts  --      6.7008                 6.7107                 6.6730
 IR Inten    --     19.9399                20.1088                12.5857

                    106                    107                    108
                      A                      A                      A
 Frequencies --   3230.7517              3511.0231              3607.3910
 Red. masses --      1.0947                 1.0541                 1.0933
 Frc consts  --      6.7321                 7.6563                 8.3826
 IR Inten    --     11.4919                25.4426                41.7770

 - Thermochemistry -
 -------------------
 Temperature   298.150 Kelvin.  Pressure   1.00000 Atm.
 Atom     1 has atomic number  6 and mass  12.00000

 Molecular mass:   253.14666 amu.
 Principal axes and moments of inertia in atomic units:
                           1         2         3
     Eigenvalues --  2553.814479312.36347**********
           X            0.99994   0.01054   0.00151
           Y           -0.01053   0.99993  -0.00596
           Z           -0.00158   0.00594   0.99998
 This molecule is an asymmetric top.
 Rotational symmetry number  1.
 Warning -- assumption of classical behavior for rotation
           may cause significant error
 Rotational temperatures (Kelvin)      0.03392     0.00930     0.00814
 Rotational constants (GHZ):           0.70668     0.19380     0.16960
    1 imaginary frequencies ignored.
 Zero-point vibrational energy     845778.2 (Joules/Mol)
                                  202.14584 (Kcal/Mol)
 Warning -- explicit consideration of  25 degrees of freedom as
           vibrations may cause significant error
 Vibrational temperatures:     53.01    54.85    67.65    80.27    98.08
          (Kelvin)            149.74   166.77   213.76   257.01   277.99
                              324.48   349.71   385.49   428.02   455.43
                              481.74   521.27   578.02   607.03   609.20
                              632.34   693.61   746.20   806.40   845.13
                              914.66   917.14   942.89   993.32  1031.55
                             1043.59  1045.69  1072.52  1113.98  1152.06
                             1198.00  1265.01  1268.73  1282.66  1368.56
                             1390.40  1400.38  1453.87  1461.74  1463.94
                             1467.43  1475.76  1476.90  1483.85  1487.81
                             1511.29  1525.24  1528.21  1567.17  1593.65
                             1599.28  1615.08  1634.33  1701.02  1707.68
                             1724.19  1731.21  1752.92  1794.86  1877.46
                             1888.56  1913.32  1928.35  1945.15  1950.24
                             1964.84  2029.64  2094.40  2120.31  2142.03
                             2148.79  2151.31  2162.02  2169.92  2188.43
                             2215.47  2229.06  2300.93  2376.36  2378.97
                             2384.93  2405.67  2412.49  4397.51  4414.92
                             4499.84  4514.22  4549.47  4589.99  4593.10
                             4595.62  4603.78  4605.43  4616.20  4618.93
                             4627.18  4634.11  4635.48  4641.10  4648.33
                             5051.58  5190.23

 Zero-point correction=                           0.322140 (Hartree/Particle)
 Thermal correction to Energy=                    0.339569
 Thermal correction to Enthalpy=                  0.340514
 Thermal correction to Gibbs Free Energy=         0.275574
 Sum of electronic and zero-point Energies=           -788.895910
 Sum of electronic and thermal Energies=              -788.878480
 Sum of electronic and thermal Enthalpies=            -788.877536
 Sum of electronic and thermal Free Energies=         -788.942476

                     E (Thermal)             CV                S
                      KCal/Mol        Cal/Mol-Kelvin    Cal/Mol-Kelvin
 Total                  213.083             67.408            136.677
 Electronic               0.000              0.000              0.000
 Translational            0.889              2.981             42.487
 Rotational               0.889              2.981             33.892
 Vibrational            211.306             61.447             60.299
 Vibration     1          0.594              1.982              5.422
 Vibration     2          0.594              1.982              5.354
 Vibration     3          0.595              1.979              4.939
 Vibration     4          0.596              1.975              4.601
 Vibration     5          0.598              1.969              4.205
 Vibration     6          0.605              1.946              3.377
 Vibration     7          0.608              1.936              3.167
 Vibration     8          0.618              1.904              2.690
 Vibration     9          0.629              1.869              2.343
 Vibration    10          0.635              1.849              2.197
 Vibration    11          0.650              1.802              1.914
 Vibration    12          0.659              1.774              1.780
 Vibration    13          0.673              1.732              1.610
 Vibration    14          0.691              1.678              1.431
 Vibration    15          0.703              1.642              1.328
 Vibration    16          0.716              1.606              1.237
 Vibration    17          0.736              1.550              1.112
 Vibration    18          0.767              1.466              0.956
 Vibration    19          0.784              1.423              0.886
 Vibration    20          0.786              1.419              0.880
 Vibration    21          0.800              1.384              0.828
 Vibration    22          0.838              1.290              0.704
 Vibration    23          0.874              1.209              0.613
 Vibration    24          0.916              1.117              0.523
 Vibration    25          0.945              1.059              0.472

 Optimization completed.
    -- Stationary point found.
 Normal termination of Gaussian 16 at Sun Jan 31 08:13:25 2021.
