 Gaussian 16, Revision A.03,
 Gaussian 16:  ES64L-G16RevA.03 25-Dec-2016

 ----------------------------------------------------------------------
 # wB97XD def2tzvp, opt=(ts, noeigen, calcfc, maxcycles=70, maxstep=5),
  freq=noraman, scrf=(iefpcm, solvent=water)
 ----------------------------------------------------------------------

 ------------------------
 2_iteration/TS-943-2.out
 ------------------------
 Symbolic Z-matrix:
 Charge =  0 Multiplicity = 1

 SCF Done:  E(RwB97XD) =  -3646.74216501     A.U. after   15 cycles
 SCF Done:  E(RwB97XD) =  -3646.74216574     A.U. after    9 cycles
 Optimization completed.
    -- Stationary point found.
 Normal termination of Gaussian 16 at Sun Feb 28 22:30:24 2021.

 ---------------------------------------------------------------------
 #N Geom=AllCheck Guess=TCheck SCRF=Check GenChk RwB97XD/def2TZVP Freq
 ---------------------------------------------------------------------

 Structure from the checkpoint file:  "/beegfs/scratch/user/q/tla25/Gau-5641.chk"
 ------------------------
 2_iteration/TS-943-2.out
 ------------------------
 Charge =  0 Multiplicity = 1

                         Standard orientation:
 ---------------------------------------------------------------------
 Center     Atomic      Atomic             Coordinates (Angstroms)
 Number     Number       Type             X           Y           Z
 ---------------------------------------------------------------------
      1          6           0        0.716808    0.922935    0.194542
      2          6           0       -0.460582    0.081863    0.141151
      3          8           0       -0.480479   -1.146046    0.238916
      4          6           0        1.996620    0.397333    0.027263
      5          6           0        1.925343   -0.844050    2.456716
      6          1           0        1.751612   -1.819239    2.010664
      7          1           0        2.370229   -0.955333    3.443814
      8          1           0        0.978680   -0.312187    2.534473
      9          7           0        2.808239   -0.069396    1.587201
     10          1           0        3.671969   -0.561436    1.378143
     11          1           0        3.052400    0.817525    2.017405
     12         17           0        3.250915    1.558208   -0.524185
     13         35           0        2.261041   -1.256152   -0.974835
     14          6           0        0.563234    2.396718    0.518089
     15          1           0        1.455005    2.798863    0.995987
     16          1           0        0.372670    3.019669   -0.363949
     17          1           0       -0.256000    2.553530    1.221737
     18          7           0       -1.643660    0.788093   -0.042925
     19          6           0       -2.956481    0.315930   -0.051178
     20          6           0       -3.344876   -0.923282    0.462759
     21          6           0       -4.682828   -1.290920    0.442568
     22          6           0       -5.654402   -0.449654   -0.077792
     23          6           0       -5.269766    0.784501   -0.584685
     24          6           0       -3.939476    1.163052   -0.574086
     25          1           0       -1.547288    1.750463   -0.315614
     26          1           0       -2.600378   -1.588696    0.867732
     27          1           0       -4.964866   -2.255900    0.846185
     28          1           0       -6.694355   -0.748873   -0.088428
     29          1           0       -6.009730    1.460131   -0.995590
     30          1           0       -3.651718    2.128222   -0.975528
 ---------------------------------------------------------------------

 SCF Done:  E(RwB97XD) =  -3646.74216574     A.U. after    1 cycles

 The electronic state is 1-A.
 Alpha  occ. eigenvalues -- -483.13368-101.70594 -62.68214 -56.47349 -56.46972
 Alpha  occ. eigenvalues --  -56.46949 -19.20005 -14.51270 -14.45750 -10.44649
 Alpha  occ. eigenvalues --  -10.38160 -10.33565 -10.32168 -10.28912 -10.28766
 Alpha  occ. eigenvalues --  -10.28636 -10.28084 -10.28049 -10.27915 -10.26841
 Alpha  occ. eigenvalues --   -9.59197  -8.82323  -7.33847  -7.32970  -7.32938
 Alpha  occ. eigenvalues --   -6.64530  -6.63334  -6.63265  -2.74904  -2.74577
 Alpha  occ. eigenvalues --   -2.74521  -2.73554  -2.73554  -1.13068  -1.06853
 Alpha  occ. eigenvalues --   -1.03463  -0.98447  -0.95270  -0.89440  -0.87744
 Alpha  occ. eigenvalues --   -0.84936  -0.83719  -0.80003  -0.77199  -0.74037
 Alpha  occ. eigenvalues --   -0.71221  -0.67825  -0.65267  -0.63951  -0.62315
 Alpha  occ. eigenvalues --   -0.59699  -0.58377  -0.57004  -0.55791  -0.53841
 Alpha  occ. eigenvalues --   -0.52989  -0.52344  -0.51307  -0.50785  -0.49942
 Alpha  occ. eigenvalues --   -0.49226  -0.48883  -0.47624  -0.47192  -0.45970
 Alpha  occ. eigenvalues --   -0.45487  -0.44523  -0.42679  -0.41393  -0.40448
 Alpha  occ. eigenvalues --   -0.39229  -0.37809  -0.37185  -0.33739  -0.32733
 Alpha  occ. eigenvalues --   -0.29971  -0.26663
 Alpha virt. eigenvalues --    0.03811   0.04464   0.05532   0.07911   0.08627
 Alpha virt. eigenvalues --    0.09829   0.12254   0.13690   0.14242   0.15234
 Alpha virt. eigenvalues --    0.16383   0.16672   0.17634   0.18116   0.18490

 Mulliken charges:
               1
     1  C   -0.331119
     2  C    0.421528
     3  O   -0.525008
     4  C    0.132861
     5  C   -0.290456
     6  H    0.158784
     7  H    0.169913
     8  H    0.160786
     9  N   -0.260066
    10  H    0.300997
    11  H    0.291902
    12  Cl  -0.084766
    13  Br  -0.077004
    14  C   -0.463136
    15  H    0.141105
    16  H    0.143439
    17  H    0.143678
    18  N   -0.287553
    19  C    0.297706
    20  C   -0.300762
    21  C   -0.103291
    22  C   -0.201864
    23  C   -0.097751
    24  C   -0.312845
    25  H    0.257402
    26  H    0.153723
    27  H    0.140245
    28  H    0.139435
    29  H    0.142013
    30  H    0.140105
 Sum of Mulliken charges =  -0.00000

 Dipole moment (field-independent basis, Debye):
    X=              5.3192    Y=              3.3325    Z=              5.6300  Tot=              8.4319
 Quadrupole moment (field-independent basis, Debye-Ang):
   XX=            -99.1237   YY=           -110.6035   ZZ=           -106.4065
   XY=             -5.3669   XZ=             18.4982   YZ=             -3.3375

  Exact polarizability: 350.755   5.299 254.912  10.075 -16.557 194.581
 Approx polarizability: 251.005   4.799 220.008   6.770 -13.612 169.152

 ******    1 imaginary frequencies (negative Signs) ******

                      1                      2                      3
                      A                      A                      A
 Frequencies --   -373.0037                26.1363                33.3843
 Red. masses --      6.2805                 4.5851                 5.1850
 Frc consts  --      0.5148                 0.0018                 0.0034
 IR Inten    --   1010.5424                 2.4226                 2.4336

                      4                      5                      6
                      A                      A                      A
 Frequencies --     55.4157                71.0560                89.3860
 Red. masses --      4.9364                 5.8107                 2.6037
 Frc consts  --      0.0089                 0.0173                 0.0123
 IR Inten    --      1.5941                 9.3540                 1.9483

                      7                      8                      9
                      A                      A                      A
 Frequencies --    103.1968               146.9653               159.0113
 Red. masses --      5.1578                 1.9440                 1.3702
 Frc consts  --      0.0324                 0.0247                 0.0204
 IR Inten    --      1.2952                 4.4987                 3.5276

                     10                     11                     12
                      A                      A                      A
 Frequencies --    166.9167               186.7179               195.2114
 Red. masses --      2.5012                 4.0222                 3.6063
 Frc consts  --      0.0411                 0.0826                 0.0810
 IR Inten    --      5.7571                 1.3748                 8.1257

                     13                     14                     15
                      A                      A                      A
 Frequencies --    222.7210               230.5164               249.0821
 Red. masses --      5.8741                 3.4192                 3.6671
 Frc consts  --      0.1717                 0.1070                 0.1340
 IR Inten    --      4.8619                10.7012                 6.5273

                     16                     17                     18
                      A                      A                      A
 Frequencies --    294.2245               323.3015               346.6932
 Red. masses --      5.7011                 3.6667                 3.7428
 Frc consts  --      0.2908                 0.2258                 0.2651
 IR Inten    --     11.8454                 3.9191                38.4785

                     19                     20                     21
                      A                      A                      A
 Frequencies --    365.7115               374.3161               425.0044
 Red. masses --      5.0380                 7.2546                 2.9869
 Frc consts  --      0.3970                 0.5989                 0.3179
 IR Inten    --      9.9066                 5.9261                 0.1149

                     22                     23                     24
                      A                      A                      A
 Frequencies --    464.5795               528.3554               550.9237
 Red. masses --      4.6122                 2.7767                 1.3350
 Frc consts  --      0.5865                 0.4567                 0.2387
 IR Inten    --    108.9225                38.1546               150.6016

                     25                     26                     27
                      A                      A                      A
 Frequencies --    564.6840               582.0154               636.7379
 Red. masses --      3.0826                 5.8368                 6.2952
 Frc consts  --      0.5791                 1.1649                 1.5038
 IR Inten    --     23.0403                84.4389                 6.0018

                     28                     29                     30
                      A                      A                      A
 Frequencies --    679.0494               719.3055               728.8255
 Red. masses --      2.7391                 1.8784                 3.3006
 Frc consts  --      0.7442                 0.5726                 1.0330
 IR Inten    --     24.8532                61.3059               107.1514

                     31                     32                     33
                      A                      A                      A
 Frequencies --    774.5710               782.9622               828.8691
 Red. masses --      7.1988                 1.9108                 2.6486
 Frc consts  --      2.5447                 0.6901                 1.0721
 IR Inten    --     44.1292               111.6727               160.2895

                     34                     35                     36
                      A                      A                      A
 Frequencies --    860.3350               877.3573               922.7795
 Red. masses --      1.2693                 4.5756                 3.1721
 Frc consts  --      0.5535                 2.0752                 1.5914
 IR Inten    --      2.4738                14.9013                59.8400

                     37                     38                     39
                      A                      A                      A
 Frequencies --    934.3517              1000.7763              1015.0678
 Red. masses --      1.8135                 1.3442                 1.3669
 Frc consts  --      0.9328                 0.7932                 0.8298
 IR Inten    --     29.7082                 0.0152               173.0860

                     40                     41                     42
                      A                      A                      A
 Frequencies --   1015.6586              1020.1835              1036.9828
 Red. masses --      1.3167                 4.0482                 1.4351
 Frc consts  --      0.8002                 2.4824                 0.9092
 IR Inten    --     67.0458                 4.5441               282.1681

                     43                     44                     45
                      A                      A                      A
 Frequencies --   1059.7267              1062.7248              1066.4666
 Red. masses --      1.4776                 2.1531                 1.6902
 Frc consts  --      0.9777                 1.4327                 1.1326
 IR Inten    --     23.1364                 9.8959                37.5389

                     46                     47                     48
                      A                      A                      A
 Frequencies --   1095.9306              1119.6247              1157.6631
 Red. masses --      1.8184                 1.5682                 3.7600
 Frc consts  --      1.2868                 1.1583                 2.9690
 IR Inten    --    126.1748                 8.3352               182.5356

                     49                     50                     51
                      A                      A                      A
 Frequencies --   1181.9991              1209.8271              1261.6720
 Red. masses --      1.1214                 1.1392                 1.3569
 Frc consts  --      0.9231                 0.9824                 1.2726
 IR Inten    --      7.0510                18.4115               102.7389

                     52                     53                     54
                      A                      A                      A
 Frequencies --   1270.4094              1298.0715              1340.4190
 Red. masses --      2.4667                 6.3360                 4.1004
 Frc consts  --      2.3456                 6.2902                 4.3407
 IR Inten    --    528.2714                29.3368               870.6219

                     55                     56                     57
                      A                      A                      A
 Frequencies --   1344.6253              1360.5376              1389.4192
 Red. masses --      1.3297                 1.6136                 3.8100
 Frc consts  --      1.4164                 1.7598                 4.3335
 IR Inten    --     36.3163                 1.7381               720.2972

                     58                     59                     60
                      A                      A                      A
 Frequencies --   1428.6763              1459.5879              1472.9056
 Red. masses --      1.2558                 1.2163                 1.9575
 Frc consts  --      1.5102                 1.5268                 2.5020
 IR Inten    --     19.3484                27.9622               395.6529

                     61                     62                     63
                      A                      A                      A
 Frequencies --   1484.8726              1493.2119              1494.7365
 Red. masses --      1.0476                 1.0446                 1.0384
 Frc consts  --      1.3609                 1.3722                 1.3669
 IR Inten    --     15.4631                12.1959                27.1015

                     64                     65                     66
                      A                      A                      A
 Frequencies --   1508.0572              1547.0215              1559.2232
 Red. masses --      1.0891                 2.4283                 1.9371
 Frc consts  --      1.4594                 3.4241                 2.7748
 IR Inten    --    221.3697               175.2128               443.4190

                     67                     68                     69
                      A                      A                      A
 Frequencies --   1638.1131              1658.5700              1670.9431
 Red. masses --      1.0879                 5.6284                 5.1395
 Frc consts  --      1.7200                 9.1223                 8.4547
 IR Inten    --     78.0490                88.5931                52.3453

                     70                     71                     72
                      A                      A                      A
 Frequencies --   1689.9009              3013.9521              3083.6842
 Red. masses --      6.8835                 1.0528                 1.0326
 Frc consts  --     11.5819                 5.6347                 5.7852
 IR Inten    --    566.3198                91.2907                21.0668

                     73                     74                     75
                      A                      A                      A
 Frequencies --   3095.4804              3138.6886              3167.7921
 Red. masses --      1.0869                 1.0979                 1.1056
 Frc consts  --      6.1361                 6.3725                 6.5366
 IR Inten    --     35.4867                25.1159                 3.6589

                     76                     77                     78
                      A                      A                      A
 Frequencies --   3186.0714              3189.3966              3195.7863
 Red. masses --      1.0878                 1.1060                 1.0882
 Frc consts  --      6.5057                 6.6287                 6.5482
 IR Inten    --     14.6393                 5.4333                 2.1381

                     79                     80                     81
                      A                      A                      A
 Frequencies --   3205.2298              3220.5808              3271.9494
 Red. masses --      1.0932                 1.0979                 1.0919
 Frc consts  --      6.6170                 6.7094                 6.8874
 IR Inten    --     32.7474                24.3534                 1.7818

                     82                     83                     84
                      A                      A                      A
 Frequencies --   3501.7619              3584.4500              3660.6508
 Red. masses --      1.0508                 1.0970                 1.0765
 Frc consts  --      7.5916                 8.3044                 8.4996
 IR Inten    --     80.0368                65.8265                51.4687

 - Thermochemistry -
 -------------------
 Temperature   298.150 Kelvin.  Pressure   1.00000 Atm.
 Atom     1 has atomic number  6 and mass  12.00000

 Molecular mass:   303.99780 amu.
 Principal axes and moments of inertia in atomic units:
                           1         2         3
     Eigenvalues --  2409.63253********************
           X            0.99974   0.01081   0.02001
           Y           -0.00890   0.99564  -0.09289
           Z           -0.02093   0.09269   0.99548
 This molecule is an asymmetric top.
 Rotational symmetry number  1.
 Warning -- assumption of classical behavior for rotation
           may cause significant error
 Rotational temperatures (Kelvin)      0.03594     0.00855     0.00800
 Rotational constants (GHZ):           0.74897     0.17813     0.16676
    1 imaginary frequencies ignored.
 Zero-point vibrational energy     624628.6 (Joules/Mol)
                                  149.28982 (Kcal/Mol)
 Warning -- explicit consideration of  25 degrees of freedom as
           vibrations may cause significant error
 Vibrational temperatures:     37.60    48.03    79.73   102.23   128.61
          (Kelvin)            148.48   211.45   228.78   240.16   268.65
                              280.87   320.45   331.66   358.37   423.32
                              465.16   498.81   526.18   538.56   611.49
                              668.43   760.19   792.66   812.45   837.39
                              916.12   977.00  1034.92  1048.62  1114.43
                             1126.51  1192.56  1237.83  1262.32  1327.67
                             1344.32  1439.89  1460.46  1461.31  1467.82
                             1491.99  1524.71  1529.02  1534.41  1576.80
                             1610.89  1665.62  1700.63  1740.67  1815.26
                             1827.84  1867.64  1928.56  1934.62  1957.51
                             1999.06  2055.55  2100.02  2119.18  2136.40
                             2148.40  2150.59  2169.76  2225.82  2243.37
                             2356.88  2386.31  2404.11  2431.39  4336.40
                             4436.73  4453.71  4515.87  4557.75  4584.05
                             4588.83  4598.02  4611.61  4633.70  4707.61
                             5038.25  5157.22  5266.86

 Zero-point correction=                           0.237908 (Hartree/Particle)
 Thermal correction to Energy=                    0.254726
 Thermal correction to Enthalpy=                  0.255670
 Thermal correction to Gibbs Free Energy=         0.191166
 Sum of electronic and zero-point Energies=          -3646.504257
 Sum of electronic and thermal Energies=             -3646.487439
 Sum of electronic and thermal Enthalpies=           -3646.486495
 Sum of electronic and thermal Free Energies=        -3646.551000

                     E (Thermal)             CV                S
                      KCal/Mol        Cal/Mol-Kelvin    Cal/Mol-Kelvin
 Total                  159.843             60.877            135.761
 Electronic               0.000              0.000              0.000
 Translational            0.889              2.981             43.032
 Rotational               0.889              2.981             33.935
 Vibrational            158.066             54.916             58.794
 Vibration     1          0.593              1.985              6.103
 Vibration     2          0.594              1.983              5.617
 Vibration     3          0.596              1.975              4.614
 Vibration     4          0.598              1.968              4.124
 Vibration     5          0.602              1.957              3.673
 Vibration     6          0.605              1.947              3.393
 Vibration     7          0.617              1.906              2.711
 Vibration     8          0.621              1.893              2.562
 Vibration     9          0.624              1.883              2.470
 Vibration    10          0.632              1.858              2.260
 Vibration    11          0.636              1.847              2.178
 Vibration    12          0.648              1.806              1.937
 Vibration    13          0.652              1.794              1.875
 Vibration    14          0.662              1.764              1.737
 Vibration    15          0.689              1.685              1.450
 Vibration    16          0.708              1.629              1.293
 Vibration    17          0.725              1.582              1.181
 Vibration    18          0.739              1.543              1.098
 Vibration    19          0.745              1.525              1.062
 Vibration    20          0.787              1.416              0.875
 Vibration    21          0.822              1.329              0.753
 Vibration    22          0.883              1.187              0.591
 Vibration    23          0.906              1.138              0.542
 Vibration    24          0.921              1.108              0.515
 Vibration    25          0.939              1.070              0.482

 Optimization completed.
    -- Stationary point found.
 Normal termination of Gaussian 16 at Sun Feb 28 23:35:35 2021.
