 Gaussian 16, Revision A.03,
 Gaussian 16:  ES64L-G16RevA.03 25-Dec-2016

 ----------------------------------------------------------------------
 # wB97XD def2tzvp, opt=(ts, noeigen, calcfc, maxcycles=70, maxstep=8),
  freq=noraman, scrf=(iefpcm, solvent=water)
 ----------------------------------------------------------------------

 ------------------------
 1_iteration/TS-952-1.out
 ------------------------
 Symbolic Z-matrix:
 Charge =  0 Multiplicity = 1

 SCF Done:  E(RwB97XD) =  -6125.65730474     A.U. after   15 cycles
 SCF Done:  E(RwB97XD) =  -6125.65837913     A.U. after   14 cycles
 SCF Done:  E(RwB97XD) =  -6125.65860692     A.U. after   13 cycles
 SCF Done:  E(RwB97XD) =  -6125.65861512     A.U. after   12 cycles
 SCF Done:  E(RwB97XD) =  -6125.65871388     A.U. after   12 cycles
 SCF Done:  E(RwB97XD) =  -6125.65864553     A.U. after   12 cycles
 SCF Done:  E(RwB97XD) =  -6125.65872572     A.U. after   12 cycles
 SCF Done:  E(RwB97XD) =  -6125.65867924     A.U. after   12 cycles
 SCF Done:  E(RwB97XD) =  -6125.65872557     A.U. after   12 cycles
 SCF Done:  E(RwB97XD) =  -6125.65872613     A.U. after    8 cycles
 SCF Done:  E(RwB97XD) =  -6125.65872580     A.U. after    8 cycles
 SCF Done:  E(RwB97XD) =  -6125.65872577     A.U. after    7 cycles
 Optimization completed.
    -- Stationary point found.
 Normal termination of Gaussian 16 at Mon Mar 29 11:59:24 2021.

 ---------------------------------------------------------------------
 #N Geom=AllCheck Guess=TCheck SCRF=Check GenChk RwB97XD/def2TZVP Freq
 ---------------------------------------------------------------------

 Structure from the checkpoint file:  "/beegfs/scratch/user/q/tla25/Gau-67378.chk"
 ------------------------
 1_iteration/TS-952-1.out
 ------------------------
 Charge =  0 Multiplicity = 1

                         Standard orientation:
 ---------------------------------------------------------------------
 Center     Atomic      Atomic             Coordinates (Angstroms)
 Number     Number       Type             X           Y           Z
 ---------------------------------------------------------------------
      1          6           0       -0.820994   -0.575576   -0.202200
      2          6           0        0.291663   -1.485590   -0.401070
      3          8           0        0.131848   -2.631421   -0.803279
      4          6           0       -0.792314    0.810723   -0.088846
      5          6           0       -1.192745    0.600226    2.717476
      6          1           0       -1.013520   -0.452158    2.495120
      7          1           0       -0.877412    0.806949    3.739903
      8          1           0       -2.256549    0.804859    2.618057
      9          7           0       -0.455784    1.412639    1.759471
     10          1           0       -0.699783    2.395292    1.818441
     11          1           0        0.547176    1.328386    1.885283
     12         17           0       -2.291457    1.691951   -0.316444
     13         35           0        0.646121    1.811308   -0.909614
     14         35           0       -2.510112   -1.466227   -0.144977
     15          6           0        1.691962   -1.066757   -0.056648
     16          6           0        2.679883   -1.094204   -1.034941
     17          6           0        3.984865   -0.762750   -0.713292
     18          6           0        4.319261   -0.431193    0.594160
     19          6           0        3.345148   -0.444711    1.580514
     20          6           0        2.033445   -0.759112    1.254179
     21          1           0        2.416916   -1.354007   -2.052612
     22          1           0        4.745930   -0.764256   -1.483159
     23          1           0        5.340759   -0.174863    0.844129
     24          1           0        3.603828   -0.214190    2.605934
     25          1           0        1.281770   -0.800451    2.033063
 ---------------------------------------------------------------------

 SCF Done:  E(RwB97XD) =  -6125.65872577     A.U. after    1 cycles

 The electronic state is 1-A.
 Alpha  occ. eigenvalues -- -483.14925-483.12853-101.72053 -62.69757 -62.67678
 Alpha  occ. eigenvalues --  -56.48905 -56.48506 -56.48493 -56.46806 -56.46438
 Alpha  occ. eigenvalues --  -56.46426 -19.23185 -14.49590 -10.46171 -10.38306
 Alpha  occ. eigenvalues --  -10.33342 -10.32351 -10.30751 -10.30101 -10.29754
 Alpha  occ. eigenvalues --  -10.29753 -10.29645 -10.29589  -9.60632  -8.83856
 Alpha  occ. eigenvalues --   -8.81788  -7.35326  -7.34392  -7.34342  -6.66099
 Alpha  occ. eigenvalues --   -6.64832  -6.64792  -6.63971  -6.62794  -6.62761
 Alpha  occ. eigenvalues --   -2.76468  -2.76112  -2.76080  -2.75056  -2.75055
 Alpha  occ. eigenvalues --   -2.74355  -2.74015  -2.73989  -2.73036  -2.73036
 Alpha  occ. eigenvalues --   -1.14339  -1.05645  -1.00634  -0.97485  -0.92016
 Alpha  occ. eigenvalues --   -0.90390  -0.87217  -0.85955  -0.82053  -0.79655
 Alpha  occ. eigenvalues --   -0.74674  -0.71409  -0.69835  -0.64630  -0.63952
 Alpha  occ. eigenvalues --   -0.60352  -0.58600  -0.58029  -0.56368  -0.55561
 Alpha  occ. eigenvalues --   -0.55279  -0.53726  -0.51813  -0.51682  -0.49821
 Alpha  occ. eigenvalues --   -0.49083  -0.48607  -0.46710  -0.46595  -0.44804
 Alpha  occ. eigenvalues --   -0.43473  -0.43060  -0.41167  -0.39891  -0.38970
 Alpha  occ. eigenvalues --   -0.38336  -0.36535  -0.35275  -0.34544  -0.32721
 Alpha  occ. eigenvalues --   -0.29457
 Alpha virt. eigenvalues --    0.00150   0.02044   0.03747   0.04690   0.05980
 Alpha virt. eigenvalues --    0.10313   0.12546   0.13170   0.13625   0.14056
 Alpha virt. eigenvalues --    0.15101   0.16051   0.17195   0.17903   0.18536

 Mulliken charges:
               1
     1  C   -0.286028
     2  C    0.264892
     3  O   -0.428727
     4  C    0.174831
     5  C   -0.309292
     6  H    0.161355
     7  H    0.171158
     8  H    0.167099
     9  N   -0.346976
    10  H    0.296609
    11  H    0.285615
    12  Cl  -0.024873
    13  Br  -0.023866
    14  Br  -0.106186
    15  C    0.161098
    16  C   -0.226679
    17  C   -0.125105
    18  C   -0.147969
    19  C   -0.127743
    20  C   -0.308249
    21  H    0.144356
    22  H    0.147717
    23  H    0.148434
    24  H    0.146560
    25  H    0.191969
 Sum of Mulliken charges =  -0.00000

 Dipole moment (field-independent basis, Debye):
    X=              2.8635    Y=              8.0517    Z=              6.9576  Tot=             11.0199
 Quadrupole moment (field-independent basis, Debye-Ang):
   XX=           -111.0196   YY=           -132.2042   ZZ=           -103.6846
   XY=             -2.1545   XZ=             -4.0201   YZ=              3.6612

  Exact polarizability: 296.310  12.292 247.461  -7.857  24.793 237.982
 Approx polarizability: 234.013  12.342 207.311  -5.736  19.682 206.358

 ******    1 imaginary frequencies (negative Signs) ******

                      1                      2                      3
                      A                      A                      A
 Frequencies --   -363.7102                28.5324                45.6163
 Red. masses --      5.9388                 6.7684                 7.4747
 Frc consts  --      0.4629                 0.0032                 0.0092
 IR Inten    --    820.6230                 2.7057                 3.1701

                      4                      5                      6
                      A                      A                      A
 Frequencies --     63.7465                74.7021                83.8540
 Red. masses --      6.4180                 3.3107                 4.4519
 Frc consts  --      0.0154                 0.0109                 0.0184
 IR Inten    --      0.5655                 3.1266                 1.4991

                      7                      8                      9
                      A                      A                      A
 Frequencies --    131.7081               136.9589               173.1387
 Red. masses --      4.2992                 7.5204                16.4121
 Frc consts  --      0.0439                 0.0831                 0.2899
 IR Inten    --      4.6153                 4.1631                 0.9731

                     10                     11                     12
                      A                      A                      A
 Frequencies --    180.6772               190.8550               208.3335
 Red. masses --      1.3380                 6.0642                 4.5853
 Frc consts  --      0.0257                 0.1301                 0.1173
 IR Inten    --      6.3981                 3.0477                 3.1029

                     13                     14                     15
                      A                      A                      A
 Frequencies --    227.5764               243.3011               255.4954
 Red. masses --      6.8796                 6.8236                 4.4281
 Frc consts  --      0.2099                 0.2380                 0.1703
 IR Inten    --      3.9322                15.4606                 2.7010

                     16                     17                     18
                      A                      A                      A
 Frequencies --    277.4056               300.7898               376.4938
 Red. masses --      4.7245                 5.6036                 6.3108
 Frc consts  --      0.2142                 0.2987                 0.5270
 IR Inten    --     12.7069                 7.3530                11.5217

                     19                     20                     21
                      A                      A                      A
 Frequencies --    418.2132               424.0563               504.3404
 Red. masses --      6.1930                 3.4407                 7.8277
 Frc consts  --      0.6382                 0.3645                 1.1731
 IR Inten    --      4.7997                 7.5733               133.6790

                     22                     23                     24
                      A                      A                      A
 Frequencies --    556.7402               635.4549               641.1168
 Red. masses --      4.6352                 6.3467                 1.6423
 Frc consts  --      0.8465                 1.5100                 0.3977
 IR Inten    --      9.2175                 0.4560                 1.5232

                     25                     26                     27
                      A                      A                      A
 Frequencies --    660.3653               722.7506               733.0617
 Red. masses --      3.7679                 7.9716                 1.7246
 Frc consts  --      0.9681                 2.4534                 0.5460
 IR Inten    --    143.4588               169.2020                54.9388

                     28                     29                     30
                      A                      A                      A
 Frequencies --    758.4279               813.2298               820.3895
 Red. masses --      4.0457                 3.1235                 6.2441
 Frc consts  --      1.3711                 1.2171                 2.4761
 IR Inten    --     53.1390                61.6260               134.1334

                     31                     32                     33
                      A                      A                      A
 Frequencies --    875.4374               888.1657               970.3536
 Red. masses --      4.3508                 1.3448                 1.4166
 Frc consts  --      1.9646                 0.6250                 0.7859
 IR Inten    --     39.4278                 3.2228                15.8852

                     34                     35                     36
                      A                      A                      A
 Frequencies --   1005.9622              1019.2938              1028.0731
 Red. masses --      1.1277                 1.6619                 2.6727
 Frc consts  --      0.6724                 1.0173                 1.6644
 IR Inten    --     15.5435                 6.3430                13.4694

                     37                     38                     39
                      A                      A                      A
 Frequencies --   1034.7382              1038.2986              1057.6901
 Red. masses --      1.2136                 1.2796                 2.3218
 Frc consts  --      0.7656                 0.8128                 1.5304
 IR Inten    --     52.9639                45.0694                13.2533

                     40                     41                     42
                      A                      A                      A
 Frequencies --   1079.0563              1110.3447              1139.2728
 Red. masses --      4.9058                 1.5633                 3.9744
 Frc consts  --      3.3655                 1.1356                 3.0393
 IR Inten    --     38.6402                26.0520                72.8026

                     43                     44                     45
                      A                      A                      A
 Frequencies --   1185.1609              1204.3205              1217.8448
 Red. masses --      1.1399                 1.1230                 1.4001
 Frc consts  --      0.9433                 0.9597                 1.2235
 IR Inten    --      0.5558                 6.4382                20.2473

                     46                     47                     48
                      A                      A                      A
 Frequencies --   1308.4777              1327.8036              1340.4495
 Red. masses --      4.6954                 4.9974                 1.3457
 Frc consts  --      4.7365                 5.1912                 1.4246
 IR Inten    --    372.4773                57.5991                31.6712

                     49                     50                     51
                      A                      A                      A
 Frequencies --   1357.3035              1368.4111              1461.0147
 Red. masses --      1.5116                 8.0082                 1.2013
 Frc consts  --      1.6408                 8.8353                 1.5108
 IR Inten    --      5.6833              1256.5526                11.5187

                     52                     53                     54
                      A                      A                      A
 Frequencies --   1490.5928              1492.8378              1500.8870
 Red. masses --      2.1946                 1.0476                 1.0320
 Frc consts  --      2.8729                 1.3755                 1.3697
 IR Inten    --     13.8118                24.9659                15.4410

                     55                     56                     57
                      A                      A                      A
 Frequencies --   1540.2659              1637.6650              1650.6525
 Red. masses --      2.3276                 1.0890                 5.9440
 Frc consts  --      3.2536                 1.7208                 9.5420
 IR Inten    --      4.5692                54.4877                20.6549

                     58                     59                     60
                      A                      A                      A
 Frequencies --   1674.2567              1674.7838              3068.1908
 Red. masses --      6.3925                10.8521                 1.0333
 Frc consts  --     10.5577                17.9341                 5.7313
 IR Inten    --     88.2506               520.3908                23.4876

                     61                     62                     63
                      A                      A                      A
 Frequencies --   3144.5006              3169.5275              3196.5923
 Red. masses --      1.1049                 1.1053                 1.0863
 Frc consts  --      6.4367                 6.5422                 6.5402
 IR Inten    --     10.6945                 9.5092                 3.9113

                     64                     65                     66
                      A                      A                      A
 Frequencies --   3201.5248              3209.1330              3217.3613
 Red. masses --      1.0878                 1.0914                 1.0953
 Frc consts  --      6.5695                 6.6223                 6.6802
 IR Inten    --      0.7379                 8.6658                30.2259

                     67                     68                     69
                      A                      A                      A
 Frequencies --   3226.2376              3513.7579              3599.5394
 Red. masses --      1.0990                 1.0509                 1.0967
 Frc consts  --      6.7395                 7.6443                 8.3721
 IR Inten    --     15.0872                61.6030                89.6524

 - Thermochemistry -
 -------------------
 Temperature   298.150 Kelvin.  Pressure   1.00000 Atm.
 Atom     1 has atomic number  6 and mass  12.00000

 Molecular mass:   352.88176 amu.
 Principal axes and moments of inertia in atomic units:
                           1         2         3
     Eigenvalues --  3940.157786737.013398273.51665
           X            0.99777  -0.06656  -0.00581
           Y            0.06678   0.99599   0.05946
           Z            0.00183  -0.05972   0.99821
 This molecule is an asymmetric top.
 Rotational symmetry number  1.
 Warning -- assumption of classical behavior for rotation
           may cause significant error
 Rotational temperatures (Kelvin)      0.02198     0.01286     0.01047
 Rotational constants (GHZ):           0.45804     0.26788     0.21813
    1 imaginary frequencies ignored.
 Zero-point vibrational energy     477986.6 (Joules/Mol)
                                  114.24153 (Kcal/Mol)
 Warning -- explicit consideration of  21 degrees of freedom as
           vibrations may cause significant error
 Vibrational temperatures:     41.05    65.63    91.72   107.48   120.65
          (Kelvin)            189.50   197.05   249.11   259.95   274.60
                              299.75   327.43   350.06   367.60   399.12
                              432.77   541.69   601.72   610.12   725.63
                              801.03   914.28   922.42   950.12  1039.88
                             1054.71  1091.21  1170.06  1180.36  1259.56
                             1277.87  1396.12  1447.36  1466.54  1479.17
                             1488.76  1493.88  1521.78  1552.52  1597.54
                             1639.16  1705.18  1732.75  1752.21  1882.61
                             1910.41  1928.61  1952.86  1968.84  2102.07
                             2144.63  2147.86  2159.44  2216.10  2356.23
                             2374.92  2408.88  2409.64  4414.44  4524.24
                             4560.24  4599.18  4606.28  4617.23  4629.07
                             4641.84  5055.51  5178.93

 Zero-point correction=                           0.182055 (Hartree/Particle)
 Thermal correction to Energy=                    0.197721
 Thermal correction to Enthalpy=                  0.198665
 Thermal correction to Gibbs Free Energy=         0.136354
 Sum of electronic and zero-point Energies=          -6125.476670
 Sum of electronic and thermal Energies=             -6125.461005
 Sum of electronic and thermal Enthalpies=           -6125.460061
 Sum of electronic and thermal Free Energies=        -6125.522371

                     E (Thermal)             CV                S
                      KCal/Mol        Cal/Mol-Kelvin    Cal/Mol-Kelvin
 Total                  124.072             55.023            131.144
 Electronic               0.000              0.000              0.000
 Translational            0.889              2.981             43.477
 Rotational               0.889              2.981             33.751
 Vibrational            122.294             49.061             53.916
 Vibration     1          0.593              1.984              5.929
 Vibration     2          0.595              1.979              4.999
 Vibration     3          0.597              1.972              4.338
 Vibration     4          0.599              1.966              4.025
 Vibration     5          0.601              1.960              3.799
 Vibration     6          0.612              1.922              2.921
 Vibration     7          0.614              1.916              2.846
 Vibration     8          0.627              1.876              2.401
 Vibration     9          0.630              1.866              2.321
 Vibration    10          0.634              1.852              2.220
 Vibration    11          0.642              1.828              2.058
 Vibration    12          0.651              1.799              1.898
 Vibration    13          0.659              1.774              1.779
 Vibration    14          0.666              1.754              1.692
 Vibration    15          0.678              1.715              1.550
 Vibration    16          0.693              1.672              1.413
 Vibration    17          0.747              1.520              1.053
 Vibration    18          0.781              1.431              0.898
 Vibration    19          0.786              1.418              0.878
 Vibration    20          0.860              1.240              0.647
 Vibration    21          0.912              1.125              0.530

 Optimization completed.
    -- Stationary point found.
 Normal termination of Gaussian 16 at Mon Mar 29 12:57:50 2021.
