 Gaussian 16, Revision A.03,
 Gaussian 16:  ES64L-G16RevA.03 25-Dec-2016

 ----------------------------------------------------------------------
 # wB97XD def2tzvp, opt=(ts, noeigen, calcfc, maxcycles=70, maxstep=8),
  freq=noraman, scrf=(iefpcm, solvent=water)
 ----------------------------------------------------------------------

 ------------------------
 1_iteration/TS-960-1.out
 ------------------------
 Symbolic Z-matrix:
 Charge =  0 Multiplicity = 1

 SCF Done:  E(RwB97XD) =  -4011.65195636     A.U. after   15 cycles
 SCF Done:  E(RwB97XD) =  -4011.65276333     A.U. after   15 cycles
 SCF Done:  E(RwB97XD) =  -4011.65351594     A.U. after   13 cycles
 SCF Done:  E(RwB97XD) =  -4011.65354999     A.U. after   14 cycles
 SCF Done:  E(RwB97XD) =  -4011.65348389     A.U. after   12 cycles
 SCF Done:  E(RwB97XD) =  -4011.65344799     A.U. after   13 cycles
 SCF Done:  E(RwB97XD) =  -4011.65347617     A.U. after   13 cycles
 SCF Done:  E(RwB97XD) =  -4011.65359676     A.U. after   13 cycles
 SCF Done:  E(RwB97XD) =  -4011.65387476     A.U. after   12 cycles
 SCF Done:  E(RwB97XD) =  -4011.65389735     A.U. after   11 cycles
 SCF Done:  E(RwB97XD) =  -4011.65389865     A.U. after   10 cycles
 SCF Done:  E(RwB97XD) =  -4011.65390220     A.U. after   10 cycles
 SCF Done:  E(RwB97XD) =  -4011.65390223     A.U. after   10 cycles
 SCF Done:  E(RwB97XD) =  -4011.65390275     A.U. after    9 cycles
 SCF Done:  E(RwB97XD) =  -4011.65390288     A.U. after    7 cycles
 Optimization completed.
    -- Stationary point found.
 Normal termination of Gaussian 16 at Mon Mar 29 05:49:12 2021.

 ---------------------------------------------------------------------
 #N Geom=AllCheck Guess=TCheck SCRF=Check GenChk RwB97XD/def2TZVP Freq
 ---------------------------------------------------------------------

 Structure from the checkpoint file:  "/beegfs/scratch/user/q/tla25/Gau-5138.chk"
 ------------------------
 1_iteration/TS-960-1.out
 ------------------------
 Charge =  0 Multiplicity = 1

                         Standard orientation:
 ---------------------------------------------------------------------
 Center     Atomic      Atomic             Coordinates (Angstroms)
 Number     Number       Type             X           Y           Z
 ---------------------------------------------------------------------
      1          6           0        0.921617    0.973064   -0.288518
      2          6           0       -0.365848    1.609099   -0.480587
      3          8           0       -0.464174    2.751837   -0.912948
      4          6           0        1.207723   -0.377728   -0.102400
      5          6           0        1.620305    0.114713    2.655685
      6          1           0        1.394674   -0.092219    3.701376
      7          1           0        2.698370    0.168976    2.521008
      8          1           0        1.180908    1.073630    2.378966
      9          7           0        1.078777   -0.917192    1.781991
     10          1           0        1.559042   -1.804237    1.888200
     11          1           0        0.089868   -1.071512    1.947547
     12         17           0        2.864789   -0.896053   -0.353777
     13         35           0        0.013468   -1.723132   -0.807197
     14         17           0        2.264185    2.098978   -0.332248
     15          6           0       -1.633118    0.903250   -0.094993
     16          6           0       -1.882211    0.574551    1.231551
     17          6           0       -3.084635   -0.016535    1.592588
     18          6           0       -4.041099   -0.285747    0.625647
     19          6           0       -3.804876    0.065424   -0.697885
     20          6           0       -2.612137    0.671057   -1.054735
     21          1           0       -1.150497    0.811699    1.994421
     22          1           0       -3.273010   -0.262980    2.629586
     23          1           0       -4.974917   -0.757661    0.903061
     24          1           0       -4.554864   -0.132879   -1.452941
     25          1           0       -2.425885    0.945813   -2.085367
 ---------------------------------------------------------------------

 SCF Done:  E(RwB97XD) =  -4011.65390288     A.U. after    1 cycles

 The electronic state is 1-A.
 Alpha  occ. eigenvalues -- -483.14968-101.72025-101.69500 -62.69800 -56.48948
 Alpha  occ. eigenvalues --  -56.48548 -56.48536 -19.23021 -14.49753 -10.46120
 Alpha  occ. eigenvalues --  -10.38122 -10.33692 -10.32404 -10.30697 -10.30076
 Alpha  occ. eigenvalues --  -10.29732 -10.29731 -10.29626 -10.29570  -9.60601
 Alpha  occ. eigenvalues --   -9.58026  -8.83901  -7.35296  -7.34362  -7.34311
 Alpha  occ. eigenvalues --   -7.32692  -7.31797  -7.31781  -6.66145  -6.64875
 Alpha  occ. eigenvalues --   -6.64836  -2.76515  -2.76156  -2.76126  -2.75099
 Alpha  occ. eigenvalues --   -2.75098  -1.14186  -1.05835  -1.01075  -0.97459
 Alpha  occ. eigenvalues --   -0.95362  -0.90998  -0.87377  -0.85933  -0.82897
 Alpha  occ. eigenvalues --   -0.79732  -0.74714  -0.71392  -0.69958  -0.64739
 Alpha  occ. eigenvalues --   -0.64048  -0.60576  -0.58760  -0.58155  -0.56633
 Alpha  occ. eigenvalues --   -0.55844  -0.55435  -0.53819  -0.51786  -0.51627
 Alpha  occ. eigenvalues --   -0.50177  -0.49355  -0.48847  -0.47675  -0.46769
 Alpha  occ. eigenvalues --   -0.44928  -0.43725  -0.43118  -0.42236  -0.41206
 Alpha  occ. eigenvalues --   -0.39815  -0.38414  -0.37897  -0.35270  -0.34512
 Alpha  occ. eigenvalues --   -0.32817  -0.29433
 Alpha virt. eigenvalues --    0.00452   0.02260   0.04178   0.04860   0.06492
 Alpha virt. eigenvalues --    0.10317   0.13082   0.13314   0.14098   0.14953
 Alpha virt. eigenvalues --    0.15582   0.16110   0.17330   0.18007   0.18744

 Mulliken charges:
               1
     1  C   -0.212994
     2  C    0.236962
     3  O   -0.432323
     4  C    0.161719
     5  C   -0.307773
     6  H    0.170740
     7  H    0.166787
     8  H    0.162286
     9  N   -0.343064
    10  H    0.297554
    11  H    0.286029
    12  Cl  -0.028030
    13  Br  -0.020552
    14  Cl  -0.136803
    15  C    0.153359
    16  C   -0.301438
    17  C   -0.127892
    18  C   -0.149491
    19  C   -0.124183
    20  C   -0.227708
    21  H    0.190258
    22  H    0.146405
    23  H    0.148261
    24  H    0.147677
    25  H    0.144215
 Sum of Mulliken charges =  -0.00000

 Dipole moment (field-independent basis, Debye):
    X=             -0.7141    Y=             -8.1805    Z=              7.4321  Tot=             11.0755
 Quadrupole moment (field-independent basis, Debye-Ang):
   XX=           -105.4942   YY=           -130.8807   ZZ=            -97.7832
   XY=              0.5618   XZ=              7.0439   YZ=              0.7469

  Exact polarizability: 275.349  14.427 238.124  12.440 -23.289 230.991
 Approx polarizability: 218.117  14.018 202.490   8.896 -18.666 200.499

 ******    1 imaginary frequencies (negative Signs) ******

                      1                      2                      3
                      A                      A                      A
 Frequencies --   -363.8519                32.1860                49.9554
 Red. masses --      5.9654                 7.1858                 6.7869
 Frc consts  --      0.4653                 0.0044                 0.0100
 IR Inten    --    845.9766                 2.4827                 2.3125

                      4                      5                      6
                      A                      A                      A
 Frequencies --     65.4549                82.5406               102.1835
 Red. masses --      7.6723                 4.2804                 3.9360
 Frc consts  --      0.0194                 0.0172                 0.0242
 IR Inten    --      1.6652                 2.9057                 0.0476

                      7                      8                      9
                      A                      A                      A
 Frequencies --    134.3899               141.9936               187.3805
 Red. masses --      4.1236                 8.9714                 6.3205
 Frc consts  --      0.0439                 0.1066                 0.1308
 IR Inten    --      3.3560                 3.6935                 2.9136

                     10                     11                     12
                      A                      A                      A
 Frequencies --    194.9734               222.3247               231.4125
 Red. masses --      1.1657                 7.9801                 4.7416
 Frc consts  --      0.0261                 0.2324                 0.1496
 IR Inten    --      4.3741                 4.3418                 1.1696

                     13                     14                     15
                      A                      A                      A
 Frequencies --    241.6649               246.4413               282.5470
 Red. masses --      9.5177                 5.2026                 4.4057
 Frc consts  --      0.3275                 0.1862                 0.2072
 IR Inten    --      0.8439                23.4558                11.4236

                     16                     17                     18
                      A                      A                      A
 Frequencies --    302.8644               320.8825               379.7065
 Red. masses --      5.5156                11.4245                 6.4143
 Frc consts  --      0.2981                 0.6931                 0.5449
 IR Inten    --      4.2356                 2.3038                11.6825

                     19                     20                     21
                      A                      A                      A
 Frequencies --    419.6546               424.0319               515.7416
 Red. masses --      4.1008                 4.6189                 7.9122
 Frc consts  --      0.4255                 0.4893                 1.2400
 IR Inten    --      0.8650                 8.7838               129.4850

                     22                     23                     24
                      A                      A                      A
 Frequencies --    565.4804               634.9351               650.9624
 Red. masses --      4.4625                 6.3687                 1.8476
 Frc consts  --      0.8407                 1.5127                 0.4613
 IR Inten    --      5.2932                 0.3619                 4.4259

                     25                     26                     27
                      A                      A                      A
 Frequencies --    674.7172               730.8154               757.0392
 Red. masses --      2.8897                 1.7131                 4.1616
 Frc consts  --      0.7751                 0.5391                 1.4052
 IR Inten    --    121.4672                88.3647                70.2603

                     28                     29                     30
                      A                      A                      A
 Frequencies --    761.9784               813.5464               827.2842
 Red. masses --      8.4212                 3.0635                 6.1877
 Frc consts  --      2.8808                 1.1946                 2.4951
 IR Inten    --    153.1695                66.2475               185.7827

                     31                     32                     33
                      A                      A                      A
 Frequencies --    883.4794               890.0386               966.7251
 Red. masses --      1.5399                 3.0447                 1.4382
 Frc consts  --      0.7082                 1.4211                 0.7919
 IR Inten    --      6.7001                21.9498                17.5906

                     34                     35                     36
                      A                      A                      A
 Frequencies --   1004.6531              1016.8678              1027.8674
 Red. masses --      1.1287                 1.5167                 3.2682
 Frc consts  --      0.6712                 0.9240                 2.0344
 IR Inten    --     15.7550                 6.1396                 9.8137

                     37                     38                     39
                      A                      A                      A
 Frequencies --   1034.1155              1037.0416              1058.4762
 Red. masses --      1.2529                 1.2209                 2.2859
 Frc consts  --      0.7894                 0.7736                 1.5089
 IR Inten    --     33.6734                64.7935                11.0440

                     40                     41                     42
                      A                      A                      A
 Frequencies --   1078.7586              1111.4319              1149.0379
 Red. masses --      5.0631                 1.5470                 4.1828
 Frc consts  --      3.4715                 1.1259                 3.2537
 IR Inten    --     44.1016                20.2064                70.8153

                     43                     44                     45
                      A                      A                      A
 Frequencies --   1184.9271              1205.4983              1220.2555
 Red. masses --      1.1399                 1.1231                 1.4017
 Frc consts  --      0.9430                 0.9616                 1.2297
 IR Inten    --      0.4484                 5.6911                21.6173

                     46                     47                     48
                      A                      A                      A
 Frequencies --   1314.8412              1330.7719              1340.4561
 Red. masses --      4.2722                 5.8038                 1.3406
 Frc consts  --      4.3516                 6.0558                 1.4192
 IR Inten    --    322.4145               190.0384                12.6919

                     49                     50                     51
                      A                      A                      A
 Frequencies --   1357.5940              1371.2890              1462.9466
 Red. masses --      1.4950                 8.6093                 1.1993
 Frc consts  --      1.6234                 9.5385                 1.5122
 IR Inten    --      7.6708              1178.0716                10.9546

                     52                     53                     54
                      A                      A                      A
 Frequencies --   1490.0915              1494.2194              1502.0383
 Red. masses --      2.2011                 1.0469                 1.0315
 Frc consts  --      2.8795                 1.3771                 1.3711
 IR Inten    --     14.0113                23.4523                14.9358

                     55                     56                     57
                      A                      A                      A
 Frequencies --   1541.0629              1645.4578              1650.3743
 Red. masses --      2.3366                 1.1002                 5.6431
 Frc consts  --      3.2694                 1.7550                 9.0559
 IR Inten    --      5.1916                52.1028                34.4628

                     58                     59                     60
                      A                      A                      A
 Frequencies --   1672.3180              1674.5682              3069.8845
 Red. masses --     12.4268                 5.9153                 1.0332
 Frc consts  --     20.4761                 9.7731                 5.7369
 IR Inten    --    640.8883                 5.1477                22.2636

                     61                     62                     63
                      A                      A                      A
 Frequencies --   3146.5694              3171.0171              3196.5301
 Red. masses --      1.1048                 1.1053                 1.0861
 Frc consts  --      6.4449                 6.5486                 6.5382
 IR Inten    --      9.9034                 9.6487                 2.8662

                     64                     65                     66
                      A                      A                      A
 Frequencies --   3201.3735              3208.6623              3216.8940
 Red. masses --      1.0879                 1.0914                 1.0953
 Frc consts  --      6.5690                 6.6206                 6.6783
 IR Inten    --      0.7289                 9.6771                30.9950

                     67                     68                     69
                      A                      A                      A
 Frequencies --   3225.5778              3515.3497              3601.0263
 Red. masses --      1.0990                 1.0506                 1.0967
 Frc consts  --      6.7368                 7.6493                 8.3793
 IR Inten    --     14.7564                62.6292                87.3340

 - Thermochemistry -
 -------------------
 Temperature   298.150 Kelvin.  Pressure   1.00000 Atm.
 Atom     1 has atomic number  6 and mass  12.00000

 Molecular mass:   308.93228 amu.
 Principal axes and moments of inertia in atomic units:
                           1         2         3
     Eigenvalues --  3391.094305682.795746733.99056
           X            0.99987  -0.00165   0.01593
           Y            0.00248   0.99861  -0.05269
           Z           -0.01582   0.05272   0.99848
 This molecule is an asymmetric top.
 Rotational symmetry number  1.
 Warning -- assumption of classical behavior for rotation
           may cause significant error
 Rotational temperatures (Kelvin)      0.02554     0.01524     0.01286
 Rotational constants (GHZ):           0.53220     0.31758     0.26800
    1 imaginary frequencies ignored.
 Zero-point vibrational energy     480092.4 (Joules/Mol)
                                  114.74483 (Kcal/Mol)
 Warning -- explicit consideration of  21 degrees of freedom as
           vibrations may cause significant error
 Vibrational temperatures:     46.31    71.87    94.17   118.76   147.02
          (Kelvin)            193.36   204.30   269.60   280.52   319.88
                              332.95   347.70   354.57   406.52   435.75
                              461.68   546.31   603.79   610.09   742.04
                              813.60   913.53   936.59   970.77  1051.48
                             1089.21  1096.32  1170.51  1190.28  1271.13
                             1280.57  1390.90  1445.47  1463.05  1478.87
                             1487.86  1492.07  1522.91  1552.09  1599.10
                             1653.21  1704.85  1734.44  1755.68  1891.76
                             1914.68  1928.62  1953.27  1972.98  2104.85
                             2143.91  2149.85  2161.10  2217.25  2367.45
                             2374.52  2406.09  2409.33  4416.88  4527.21
                             4562.39  4599.09  4606.06  4616.55  4628.39
                             4640.89  5057.80  5181.07

 Zero-point correction=                           0.182858 (Hartree/Particle)
 Thermal correction to Energy=                    0.198143
 Thermal correction to Enthalpy=                  0.199088
 Thermal correction to Gibbs Free Energy=         0.138460
 Sum of electronic and zero-point Energies=          -4011.471045
 Sum of electronic and thermal Energies=             -4011.455759
 Sum of electronic and thermal Enthalpies=           -4011.454815
 Sum of electronic and thermal Free Energies=        -4011.515443

                     E (Thermal)             CV                S
                      KCal/Mol        Cal/Mol-Kelvin    Cal/Mol-Kelvin
 Total                  124.337             54.516            127.601
 Electronic               0.000              0.000              0.000
 Translational            0.889              2.981             43.080
 Rotational               0.889              2.981             33.228
 Vibrational            122.559             48.554             51.293
 Vibration     1          0.594              1.983              5.690
 Vibration     2          0.595              1.978              4.819
 Vibration     3          0.597              1.971              4.286
 Vibration     4          0.600              1.961              3.830
 Vibration     5          0.604              1.947              3.412
 Vibration     6          0.613              1.919              2.882
 Vibration     7          0.615              1.911              2.777
 Vibration     8          0.632              1.857              2.254
 Vibration     9          0.636              1.847              2.180
 Vibration    10          0.648              1.807              1.940
 Vibration    11          0.653              1.793              1.868
 Vibration    12          0.658              1.777              1.791
 Vibration    13          0.661              1.769              1.756
 Vibration    14          0.682              1.706              1.518
 Vibration    15          0.694              1.668              1.401
 Vibration    16          0.706              1.634              1.306
 Vibration    17          0.750              1.513              1.040
 Vibration    18          0.782              1.428              0.893
 Vibration    19          0.786              1.418              0.878
 Vibration    20          0.871              1.215              0.620
 Vibration    21          0.921              1.106              0.513

 Optimization completed.
    -- Stationary point found.
 Normal termination of Gaussian 16 at Mon Mar 29 06:44:10 2021.
