 Gaussian 16, Revision A.03,
 Gaussian 16:  ES64L-G16RevA.03 25-Dec-2016

 ----------------------------------------------------------------------
 # wB97XD def2tzvp, opt=(ts, noeigen, calcfc, maxcycles=70, maxstep=8),
  freq=noraman, scrf=(iefpcm, solvent=water)
 ----------------------------------------------------------------------

 ------------------------
 1_iteration/TS-921-1.out
 ------------------------
 Symbolic Z-matrix:
 Charge =  0 Multiplicity = 1

 SCF Done:  E(RwB97XD) =  -3552.05221152     A.U. after   15 cycles
 SCF Done:  E(RwB97XD) =  -3552.05221129     A.U. after    6 cycles
 SCF Done:  E(RwB97XD) =  -3552.05221073     A.U. after    8 cycles
 SCF Done:  E(RwB97XD) =  -3552.05221125     A.U. after    8 cycles
 Optimization completed on the basis of negligible forces.
    -- Stationary point found.
 Normal termination of Gaussian 16 at Sun Feb 28 16:19:34 2021.

 ---------------------------------------------------------------------
 #N Geom=AllCheck Guess=TCheck SCRF=Check GenChk RwB97XD/def2TZVP Freq
 ---------------------------------------------------------------------

 Structure from the checkpoint file:  "/beegfs/scratch/user/q/tla25/Gau-65748.chk"
 ------------------------
 1_iteration/TS-921-1.out
 ------------------------
 Charge =  0 Multiplicity = 1

                         Standard orientation:
 ---------------------------------------------------------------------
 Center     Atomic      Atomic             Coordinates (Angstroms)
 Number     Number       Type             X           Y           Z
 ---------------------------------------------------------------------
      1          6           0        0.151584    0.551649   -0.382759
      2          6           0       -0.164676    1.862376   -0.855470
      3          8           0        0.659502    2.723146   -1.154480
      4          6           0       -0.826326   -0.356758   -0.000874
      5          6           0       -1.368232    1.090365    2.366665
      6          1           0       -2.382433    1.378168    2.100164
      7          1           0       -1.235028    1.183982    3.443543
      8          1           0       -0.664180    1.755863    1.863404
      9          7           0       -1.117343   -0.270911    1.918512
     10          1           0       -0.248785   -0.636784    2.294033
     11          1           0       -1.863365   -0.909416    2.172319
     12         17           0       -0.417065   -2.075501   -0.038049
     13         35           0       -2.651277   -0.100438   -0.574548
     14          6           0        1.590162    0.203942   -0.198104
     15          6           0        2.321847   -0.361909   -1.239525
     16          6           0        3.663328   -0.672018   -1.078049
     17          6           0        4.296398   -0.418687    0.131485
     18          6           0        3.581556    0.152819    1.173270
     19          6           0        2.239274    0.464644    1.005864
     20          1           0        1.828314   -0.563811   -2.182488
     21          1           0        4.216321   -1.113395   -1.897848
     22          1           0        5.343498   -0.662571    0.259299
     23          1           0        4.068600    0.360551    2.117781
     24          1           0        1.695665    0.929593    1.820202
     25          1           0       -1.237931    2.089338   -0.963178
 ---------------------------------------------------------------------

 SCF Done:  E(RwB97XD) =  -3552.05221125     A.U. after    1 cycles

 The electronic state is 1-A.
 Alpha  occ. eigenvalues -- -483.14800-101.71491 -62.69639 -56.48775 -56.48390
 Alpha  occ. eigenvalues --  -56.48381 -19.21790 -14.49935 -10.45328 -10.35520
 Alpha  occ. eigenvalues --  -10.32351 -10.30362 -10.29129 -10.29067 -10.29034
 Alpha  occ. eigenvalues --  -10.28965 -10.28872 -10.28338  -9.60073  -8.83745
 Alpha  occ. eigenvalues --   -7.34743  -7.33840  -7.33802  -6.65958  -6.64731
 Alpha  occ. eigenvalues --   -6.64704  -2.76334  -2.75983  -2.75963  -2.74971
 Alpha  occ. eigenvalues --   -2.74970  -1.12131  -1.05808  -0.99964  -0.96617
 Alpha  occ. eigenvalues --   -0.91025  -0.88616  -0.85131  -0.82718  -0.79833
 Alpha  occ. eigenvalues --   -0.72163  -0.70742  -0.70466  -0.64748  -0.63801
 Alpha  occ. eigenvalues --   -0.59898  -0.58812  -0.58222  -0.56195  -0.55484
 Alpha  occ. eigenvalues --   -0.54278  -0.53146  -0.50971  -0.50245  -0.49326
 Alpha  occ. eigenvalues --   -0.48580  -0.48348  -0.46502  -0.46363  -0.43547
 Alpha  occ. eigenvalues --   -0.42896  -0.41850  -0.40722  -0.38535  -0.38364
 Alpha  occ. eigenvalues --   -0.33827  -0.33383  -0.32818  -0.29665
 Alpha virt. eigenvalues --    0.01977   0.03129   0.05148   0.05932   0.08595
 Alpha virt. eigenvalues --    0.10230   0.13003   0.13603   0.14396   0.14936
 Alpha virt. eigenvalues --    0.15919   0.17273   0.17475   0.18203   0.19249

 Mulliken charges:
               1
     1  C   -0.256693
     2  C    0.137339
     3  O   -0.481688
     4  C    0.165181
     5  C   -0.317813
     6  H    0.168507
     7  H    0.172166
     8  H    0.163233
     9  N   -0.328367
    10  H    0.291798
    11  H    0.301242
    12  Cl  -0.047251
    13  Br  -0.042665
    14  C    0.199856
    15  C   -0.236260
    16  C   -0.142804
    17  C   -0.134190
    18  C   -0.168975
    19  C   -0.259321
    20  H    0.139436
    21  H    0.141794
    22  H    0.144343
    23  H    0.141502
    24  H    0.161082
    25  H    0.088549
 Sum of Mulliken charges =  -0.00000

 Dipole moment (field-independent basis, Debye):
    X=             -3.7083    Y=             -4.5585    Z=              7.8843  Tot=              9.8333
 Quadrupole moment (field-independent basis, Debye-Ang):
   XX=            -92.7536   YY=           -117.8825   ZZ=            -87.1373
   XY=             -8.5459   XZ=             -3.3974   YZ=              8.1674

  Exact polarizability: 264.914   0.092 208.365  -6.299  -4.446 221.362
 Approx polarizability: 206.586  -0.681 178.862  -2.924  -2.670 188.521

 ******    1 imaginary frequencies (negative Signs) ******

                      1                      2                      3
                      A                      A                      A
 Frequencies --   -347.2620                24.0439                37.0460
 Red. masses --      5.9708                 3.7845                 5.8368
 Frc consts  --      0.4242                 0.0013                 0.0047
 IR Inten    --    800.4214                 0.7671                 2.0382

                      4                      5                      6
                      A                      A                      A
 Frequencies --     70.7917                80.8859               108.0807
 Red. masses --      6.7834                 3.6104                 3.0105
 Frc consts  --      0.0200                 0.0139                 0.0207
 IR Inten    --      3.4272                 0.8388                 2.8361

                      7                      8                      9
                      A                      A                      A
 Frequencies --    139.1468               160.0263               175.4022
 Red. masses --      1.2753                 6.8985                 5.9904
 Frc consts  --      0.0145                 0.1041                 0.1086
 IR Inten    --      0.9435                 6.5393                 4.5244

                     10                     11                     12
                      A                      A                      A
 Frequencies --    200.4260               209.9625               239.5823
 Red. masses --      5.1482                 4.3010                 3.3170
 Frc consts  --      0.1218                 0.1117                 0.1122
 IR Inten    --      4.8203                 5.8679                20.9255

                     13                     14                     15
                      A                      A                      A
 Frequencies --    243.0921               267.2939               309.2854
 Red. masses --      4.6075                 4.2900                 5.2075
 Frc consts  --      0.1604                 0.1806                 0.2935
 IR Inten    --     14.0403                 4.8132                31.4025

                     16                     17                     18
                      A                      A                      A
 Frequencies --    373.2380               421.1386               434.0405
 Red. masses --      5.9065                 2.8624                 7.0796
 Frc consts  --      0.4848                 0.2991                 0.7858
 IR Inten    --      4.9032                 0.0734                29.8196

                     19                     20                     21
                      A                      A                      A
 Frequencies --    503.1102               541.8080               592.4571
 Red. masses --      4.3156                 4.7127                 3.3546
 Frc consts  --      0.6436                 0.8151                 0.6938
 IR Inten    --      7.5713                43.9615                66.9353

                     22                     23                     24
                      A                      A                      A
 Frequencies --    640.8409               661.7669               724.8237
 Red. masses --      3.9571                 2.4725                 2.4387
 Frc consts  --      0.9575                 0.6380                 0.7549
 IR Inten    --      1.9768                46.3923                 6.8027

                     25                     26                     27
                      A                      A                      A
 Frequencies --    731.4574               781.6220               832.3150
 Red. masses --      1.8636                 3.0359                 7.4399
 Frc consts  --      0.5875                 1.0928                 3.0366
 IR Inten    --    243.1720                74.8867               150.8090

                     28                     29                     30
                      A                      A                      A
 Frequencies --    840.8717               877.7289               958.4758
 Red. masses --      3.1975                 1.2485                 1.4923
 Frc consts  --      1.3320                 0.5667                 0.8077
 IR Inten    --    121.3769                 0.2259                 9.6217

                     31                     32                     33
                      A                      A                      A
 Frequencies --    998.5380              1010.3270              1026.7291
 Red. masses --      1.0944                 1.3830                 5.7339
 Frc consts  --      0.6429                 0.8317                 3.5613
 IR Inten    --     28.0433                 0.1164                 2.9797

                     34                     35                     36
                      A                      A                      A
 Frequencies --   1028.0096              1029.3752              1041.6281
 Red. masses --      1.7252                 1.3098                 1.1305
 Frc consts  --      1.0742                 0.8177                 0.7227
 IR Inten    --      1.3620                 0.2197                95.9467

                     37                     38                     39
                      A                      A                      A
 Frequencies --   1059.0731              1083.3293              1108.4448
 Red. masses --      2.3216                 5.0653                 1.5436
 Frc consts  --      1.5342                 3.5025                 1.1174
 IR Inten    --      5.2163                35.9634                19.3299

                     40                     41                     42
                      A                      A                      A
 Frequencies --   1149.3026              1182.7573              1205.3433
 Red. masses --      3.3314                 1.1362                 1.1246
 Frc consts  --      2.5926                 0.9365                 0.9626
 IR Inten    --     41.9410                 0.0462                 0.4081

                     43                     44                     45
                      A                      A                      A
 Frequencies --   1216.1371              1310.4524              1324.4560
 Red. masses --      1.3898                 4.4141                 3.7533
 Frc consts  --      1.2111                 4.4662                 3.8791
 IR Inten    --     27.4228                 3.7308              1009.4979

                     46                     47                     48
                      A                      A                      A
 Frequencies --   1336.7323              1356.1106              1401.9790
 Red. masses --      1.3324                 1.4657                 3.2329
 Frc consts  --      1.4027                 1.5882                 3.7439
 IR Inten    --      0.9788                 0.5901               265.0531

                     49                     50                     51
                      A                      A                      A
 Frequencies --   1445.3180              1468.1672              1487.4822
 Red. masses --      1.2009                 1.7965                 2.1590
 Frc consts  --      1.4780                 2.2816                 2.8145
 IR Inten    --     26.7322               204.6741                 7.2143

                     52                     53                     54
                      A                      A                      A
 Frequencies --   1491.7103              1498.8029              1546.1127
 Red. masses --      1.0486                 1.0412                 2.5046
 Frc consts  --      1.3747                 1.3781                 3.5275
 IR Inten    --      9.4658                16.8897                48.2738

                     55                     56                     57
                      A                      A                      A
 Frequencies --   1640.3208              1647.5319              1667.2207
 Red. masses --      1.0942                 5.7183                 7.1350
 Frc consts  --      1.7346                 9.1451                11.6851
 IR Inten    --     86.0044                 4.4828               418.4830

                     58                     59                     60
                      A                      A                      A
 Frequencies --   1679.6959              2984.6879              3064.1368
 Red. masses --      6.9293                 1.0829                 1.0358
 Frc consts  --     11.5187                 5.6838                 5.7297
 IR Inten    --    478.8945                98.4763                21.7419

                     61                     62                     63
                      A                      A                      A
 Frequencies --   3140.9081              3174.1561              3187.2888
 Red. masses --      1.1017                 1.1052                 1.0877
 Frc consts  --      6.4036                 6.5606                 6.5102
 IR Inten    --      6.4132                 7.5109                11.2026

                     64                     65                     66
                      A                      A                      A
 Frequencies --   3193.3670              3202.1715              3210.4132
 Red. masses --      1.0873                 1.0911                 1.0951
 Frc consts  --      6.5329                 6.5919                 6.6501
 IR Inten    --      1.5411                11.6942                42.4402

                     67                     68                     69
                      A                      A                      A
 Frequencies --   3220.8884              3514.1867              3599.4858
 Red. masses --      1.0989                 1.0508                 1.0970
 Frc consts  --      6.7166                 7.6458                 8.3741
 IR Inten    --     18.8132                66.6105                73.8759

 - Thermochemistry -
 -------------------
 Temperature   298.150 Kelvin.  Pressure   1.00000 Atm.
 Atom     1 has atomic number  6 and mass  12.00000

 Molecular mass:   274.97125 amu.
 Principal axes and moments of inertia in atomic units:
                           1         2         3
     Eigenvalues --  2298.034975964.051106242.47211
           X            0.99965  -0.01141  -0.02372
           Y            0.01452   0.99069   0.13537
           Z            0.02195  -0.13567   0.99051
 This molecule is an asymmetric top.
 Rotational symmetry number  1.
 Warning -- assumption of classical behavior for rotation
           may cause significant error
 Rotational temperatures (Kelvin)      0.03769     0.01452     0.01387
 Rotational constants (GHZ):           0.78534     0.30260     0.28911
    1 imaginary frequencies ignored.
 Zero-point vibrational energy     503110.7 (Joules/Mol)
                                  120.24634 (Kcal/Mol)
 Warning -- explicit consideration of  20 degrees of freedom as
           vibrations may cause significant error
 Vibrational temperatures:     34.59    53.30   101.85   116.38   155.50
          (Kelvin)            200.20   230.24   252.36   288.37   302.09
                              344.71   349.76   384.58   444.99   537.01
                              605.92   624.49   723.86   779.54   852.41
                              922.03   952.14  1042.86  1052.40  1124.58
                             1197.52  1209.83  1262.86  1379.03  1436.67
                             1453.64  1477.23  1479.08  1481.04  1498.67
                             1523.77  1558.67  1594.80  1653.59  1701.72
                             1734.22  1749.75  1885.45  1905.60  1923.26
                             1951.14  2017.14  2079.49  2112.37  2140.16
                             2146.24  2156.44  2224.51  2360.06  2370.43
                             2398.76  2416.71  4294.30  4408.61  4519.07
                             4566.90  4585.80  4594.54  4607.21  4619.07
                             4634.14  5056.13  5178.86

 Zero-point correction=                           0.191625 (Hartree/Particle)
 Thermal correction to Energy=                    0.206076
 Thermal correction to Enthalpy=                  0.207021
 Thermal correction to Gibbs Free Energy=         0.147762
 Sum of electronic and zero-point Energies=          -3551.860587
 Sum of electronic and thermal Energies=             -3551.846135
 Sum of electronic and thermal Enthalpies=           -3551.845191
 Sum of electronic and thermal Free Energies=        -3551.904449

                     E (Thermal)             CV                S
                      KCal/Mol        Cal/Mol-Kelvin    Cal/Mol-Kelvin
 Total                  129.315             51.246            124.720
 Electronic               0.000              0.000              0.000
 Translational            0.889              2.981             42.733
 Rotational               0.889              2.981             32.814
 Vibrational            127.537             45.285             49.173
 Vibration     1          0.593              1.985              6.269
 Vibration     2          0.594              1.982              5.411
 Vibration     3          0.598              1.968              4.131
 Vibration     4          0.600              1.962              3.869
 Vibration     5          0.606              1.943              3.303
 Vibration     6          0.615              1.914              2.816
 Vibration     7          0.622              1.891              2.549
 Vibration     8          0.627              1.873              2.377
 Vibration     9          0.638              1.839              2.129
 Vibration    10          0.642              1.826              2.044
 Vibration    11          0.657              1.780              1.806
 Vibration    12          0.659              1.774              1.780
 Vibration    13          0.672              1.733              1.614
 Vibration    14          0.699              1.656              1.366
 Vibration    15          0.745              1.527              1.066
 Vibration    16          0.784              1.424              0.888
 Vibration    17          0.795              1.396              0.846
 Vibration    18          0.858              1.243              0.650
 Vibration    19          0.897              1.158              0.561
 Vibration    20          0.950              1.048              0.463

 Optimization completed on the basis of negligible forces.
    -- Stationary point found.
 Normal termination of Gaussian 16 at Sun Feb 28 17:08:04 2021.
