 Gaussian 16, Revision A.03,
 Gaussian 16:  ES64L-G16RevA.03 25-Dec-2016

 ----------------------------------------------------------------------
 # wB97XD def2tzvp, opt=(ts, noeigen, calcfc, maxcycles=70, maxstep=8),
  freq=noraman, scrf=(iefpcm, solvent=water)
 ----------------------------------------------------------------------

 ------------------------
 1_iteration/TS-901-1.out
 ------------------------
 Symbolic Z-matrix:
 Charge =  0 Multiplicity = 1

 SCF Done:  E(RwB97XD) =  -920.714368494     A.U. after   15 cycles
 SCF Done:  E(RwB97XD) =  -920.714368499     A.U. after    7 cycles
 Optimization completed.
    -- Stationary point found.
 Normal termination of Gaussian 16 at Sun Feb 28 18:57:06 2021.

 ---------------------------------------------------------------------
 #N Geom=AllCheck Guess=TCheck SCRF=Check GenChk RwB97XD/def2TZVP Freq
 ---------------------------------------------------------------------

 Structure from the checkpoint file:  "/beegfs/scratch/user/q/tla25/Gau-25933.chk"
 ------------------------
 1_iteration/TS-901-1.out
 ------------------------
 Charge =  0 Multiplicity = 1

                         Standard orientation:
 ---------------------------------------------------------------------
 Center     Atomic      Atomic             Coordinates (Angstroms)
 Number     Number       Type             X           Y           Z
 ---------------------------------------------------------------------
      1          6           0        0.123468   -0.623977    0.326260
      2          6           0        1.560030   -0.527228    0.157706
      3          8           0        2.309023   -1.423309    0.582470
      4          6           0       -0.837793    0.090532   -0.380421
      5          6           0       -1.022006    1.994662    1.569408
      6          1           0       -1.544912    2.307890    2.470678
      7          1           0       -0.120243    1.442682    1.842787
      8          1           0       -0.749957    2.872247    0.988370
      9          7           0       -1.853298    1.107145    0.761128
     10          1           0       -2.336466    0.431278    1.341596
     11          1           0       -2.558961    1.608361    0.231883
     12         17           0       -2.291580   -0.953817   -0.945192
     13          6           0       -0.557082    1.084060   -1.479696
     14          1           0       -0.101163    1.995159   -1.091929
     15          1           0        0.110280    0.645842   -2.219186
     16          1           0       -1.481962    1.372528   -1.973263
     17          6           0       -0.321123   -1.705941    1.282085
     18          1           0       -1.318695   -1.515202    1.682311
     19          1           0       -0.355513   -2.696527    0.815598
     20          1           0        0.364298   -1.773896    2.126717
     21          7           0        2.136018    0.542467   -0.482927
     22          6           0        3.573803    0.664638   -0.554065
     23          1           0        1.622112    1.400277   -0.527838
     24          1           0        4.006763   -0.203296   -1.050405
     25          1           0        3.815870    1.552289   -1.136726
     26          1           0        4.038405    0.753960    0.432840
 ---------------------------------------------------------------------

 SCF Done:  E(RwB97XD) =  -920.714368499     A.U. after    1 cycles

 The electronic state is 1-A.
 Alpha  occ. eigenvalues -- -101.67912 -19.18800 -14.50266 -14.43538 -10.39940
 Alpha  occ. eigenvalues --  -10.36538 -10.32159 -10.30105 -10.29308 -10.26438
 Alpha  occ. eigenvalues --  -10.25269  -9.56528  -7.31089  -7.30351  -7.30315
 Alpha  occ. eigenvalues --   -1.11498  -1.05920  -1.00087  -0.95378  -0.87139
 Alpha  occ. eigenvalues --   -0.83927  -0.79826  -0.79216  -0.74276  -0.68099
 Alpha  occ. eigenvalues --   -0.64769  -0.64416  -0.59250  -0.57599  -0.55821
 Alpha  occ. eigenvalues --   -0.55561  -0.53078  -0.51643  -0.50666  -0.50275
 Alpha  occ. eigenvalues --   -0.48959  -0.48483  -0.47463  -0.45720  -0.44757
 Alpha  occ. eigenvalues --   -0.44238  -0.43822  -0.43482  -0.38939  -0.38473
 Alpha  occ. eigenvalues --   -0.33379  -0.32295  -0.25892
 Alpha virt. eigenvalues --    0.06617   0.08095   0.09509   0.12053   0.13305
 Alpha virt. eigenvalues --    0.14323   0.15403   0.15811   0.16362   0.17697
 Alpha virt. eigenvalues --    0.18568   0.19622   0.20006   0.20449   0.20942

 Mulliken charges:
               1
     1  C   -0.246429
     2  C    0.341707
     3  O   -0.561053
     4  C    0.117020
     5  C   -0.312962
     6  H    0.166274
     7  H    0.158438
     8  H    0.165253
     9  N   -0.250492
    10  H    0.284444
    11  H    0.295873
    12  Cl  -0.210351
    13  C   -0.424971
    14  H    0.142120
    15  H    0.171020
    16  H    0.158725
    17  C   -0.375447
    18  H    0.104279
    19  H    0.113841
    20  H    0.120307
    21  N   -0.308283
    22  C   -0.256055
    23  H    0.232911
    24  H    0.126120
    25  H    0.133203
    26  H    0.114511
 Sum of Mulliken charges =  -0.00000

 Dipole moment (field-independent basis, Debye):
    X=             -6.0578    Y=             10.4400    Z=              0.9734  Tot=             12.1094
 Quadrupole moment (field-independent basis, Debye-Ang):
   XX=            -77.6687   YY=            -73.9351   ZZ=            -72.8149
   XY=              2.1265   XZ=            -11.1843   YZ=              2.7961

  Exact polarizability: 204.477  -6.763 162.512   8.666  -3.050 142.815
 Approx polarizability: 155.039  -6.279 135.342   6.920  -2.802 120.451

 ******    1 imaginary frequencies (negative Signs) ******

                      1                      2                      3
                      A                      A                      A
 Frequencies --   -390.2781                37.6862                68.0965
 Red. masses --      5.6730                 3.4545                 3.0686
 Frc consts  --      0.5091                 0.0029                 0.0084
 IR Inten    --    603.7497                 8.8249                 3.1942

                      4                      5                      6
                      A                      A                      A
 Frequencies --     76.5638               113.0689               129.9714
 Red. masses --      2.1286                 1.3226                 2.8407
 Frc consts  --      0.0074                 0.0100                 0.0283
 IR Inten    --      1.6955                 8.8672                 4.6418

                      7                      8                      9
                      A                      A                      A
 Frequencies --    161.8834               167.0690               190.4873
 Red. masses --      1.1409                 1.7226                 2.3115
 Frc consts  --      0.0176                 0.0283                 0.0494
 IR Inten    --      0.9058                 1.7455                15.0363

                     10                     11                     12
                      A                      A                      A
 Frequencies --    205.0808               217.6188               272.5966
 Red. masses --      3.4043                 2.2811                 3.1801
 Frc consts  --      0.0844                 0.0636                 0.1392
 IR Inten    --      2.5971                31.5992                13.9397

                     13                     14                     15
                      A                      A                      A
 Frequencies --    288.4491               307.0082               325.0496
 Red. masses --      2.2774                 1.5355                 4.2864
 Frc consts  --      0.1116                 0.0853                 0.2668
 IR Inten    --     23.2911                10.3707                53.5786

                     16                     17                     18
                      A                      A                      A
 Frequencies --    343.0753               361.0042               393.0909
 Red. masses --      2.8157                 2.5985                 2.5025
 Frc consts  --      0.1953                 0.1995                 0.2278
 IR Inten    --     23.8198                19.2679                29.9004

                     19                     20                     21
                      A                      A                      A
 Frequencies --    425.5556               468.9151               520.6375
 Red. masses --      2.0282                 2.0963                 3.7300
 Frc consts  --      0.2164                 0.2716                 0.5957
 IR Inten    --    136.1616                77.5595                93.8052

                     22                     23                     24
                      A                      A                      A
 Frequencies --    586.5918               634.8305               737.4507
 Red. masses --      3.4912                 3.0817                 1.5265
 Frc consts  --      0.7078                 0.7317                 0.4891
 IR Inten    --     22.3352               264.7768                95.3510

                     25                     26                     27
                      A                      A                      A
 Frequencies --    780.7064               837.5406               952.7183
 Red. masses --      7.7653                 2.9208                 1.6989
 Frc consts  --      2.7886                 1.2072                 0.9085
 IR Inten    --     31.1281               135.7629                90.4800

                     28                     29                     30
                      A                      A                      A
 Frequencies --   1014.9304              1036.6611              1050.5998
 Red. masses --      1.1863                 1.9592                 1.4593
 Frc consts  --      0.7200                 1.2405                 0.9490
 IR Inten    --     14.5949                91.8764                27.3584

                     31                     32                     33
                      A                      A                      A
 Frequencies --   1062.0945              1078.6626              1080.2867
 Red. masses --      1.3884                 1.8200                 2.2364
 Frc consts  --      0.9228                 1.2477                 1.5377
 IR Inten    --      9.9726                32.1828                99.3603

                     34                     35                     36
                      A                      A                      A
 Frequencies --   1106.7603              1139.0817              1149.8314
 Red. masses --      1.9497                 2.4065                 1.3179
 Frc consts  --      1.4071                 1.8397                 1.0266
 IR Inten    --     72.2820                 4.0400                 7.8764

                     37                     38                     39
                      A                      A                      A
 Frequencies --   1177.4062              1225.0664              1240.6543
 Red. masses --      1.6934                 3.4163                 1.3627
 Frc consts  --      1.3832                 3.0209                 1.2358
 IR Inten    --    100.4898                30.9486                57.2533

                     40                     41                     42
                      A                      A                      A
 Frequencies --   1337.2031              1347.2416              1415.2364
 Red. masses --      1.3688                 2.9971                 1.2702
 Frc consts  --      1.4421                 3.2051                 1.4989
 IR Inten    --     43.1304               738.5164                 6.6422

                     43                     44                     45
                      A                      A                      A
 Frequencies --   1421.7231              1445.4485              1453.9433
 Red. masses --      1.2292                 1.2752                 1.2251
 Frc consts  --      1.4639                 1.5698                 1.5259
 IR Inten    --      4.0306                78.9362                19.6066

                     46                     47                     48
                      A                      A                      A
 Frequencies --   1462.3670              1471.9524              1477.6181
 Red. masses --      1.2204                 1.2583                 1.0940
 Frc consts  --      1.5377                 1.6062                 1.4073
 IR Inten    --    127.5102               137.1815                33.4911

                     49                     50                     51
                      A                      A                      A
 Frequencies --   1487.2674              1498.7378              1502.1268
 Red. masses --      1.0770                 1.0402                 1.0797
 Frc consts  --      1.4036                 1.3766                 1.4354
 IR Inten    --      6.5152                13.6605                90.0344

                     52                     53                     54
                      A                      A                      A
 Frequencies --   1505.2878              1508.0347              1520.4526
 Red. masses --      1.0980                 1.0731                 1.6065
 Frc consts  --      1.4659                 1.4378                 2.1882
 IR Inten    --      7.6857                79.6089               251.0221

                     55                     56                     57
                      A                      A                      A
 Frequencies --   1554.4086              1626.3348              1644.9099
 Red. masses --      1.7460                 5.4246                 1.0875
 Frc consts  --      2.4855                 8.4535                 1.7337
 IR Inten    --    386.5391               779.2802                78.0409

                     58                     59                     60
                      A                      A                      A
 Frequencies --   3023.6322              3034.0199              3062.8007
 Red. masses --      1.0481                 1.0448                 1.0370
 Frc consts  --      5.6455                 5.6667                 5.7313
 IR Inten    --     94.6324               103.3867                32.3371

                     61                     62                     63
                      A                      A                      A
 Frequencies --   3077.3404              3086.3281              3108.3046
 Red. masses --      1.0383                 1.0891                 1.0913
 Frc consts  --      5.7935                 6.1121                 6.2121
 IR Inten    --     14.3333                57.7392                47.6854

                     64                     65                     66
                      A                      A                      A
 Frequencies --   3127.9682              3147.6075              3149.2846
 Red. masses --      1.0998                 1.0996                 1.1038
 Frc consts  --      6.3400                 6.4186                 6.4502
 IR Inten    --     38.2505                 3.8701                29.2550

                     67                     68                     69
                      A                      A                      A
 Frequencies --   3151.8278              3173.5481              3176.2809
 Red. masses --      1.0999                 1.1039                 1.1068
 Frc consts  --      6.4374                 6.5506                 6.5791
 IR Inten    --     16.7699                 6.8669                12.1071

                     70                     71                     72
                      A                      A                      A
 Frequencies --   3525.9483              3604.2693              3714.5173
 Red. masses --      1.0515                 1.0958                 1.0764
 Frc consts  --      7.7020                 8.3875                 8.7506
 IR Inten    --     54.4012                57.6887                25.5353

 - Thermochemistry -
 -------------------
 Temperature   298.150 Kelvin.  Pressure   1.00000 Atm.
 Atom     1 has atomic number  6 and mass  12.00000

 Molecular mass:   178.08729 amu.
 Principal axes and moments of inertia in atomic units:
                           1         2         3
     Eigenvalues --  1432.322712936.068963204.07954
           X            0.99940  -0.00802  -0.03366
           Y            0.00570   0.99764  -0.06847
           Z            0.03413   0.06824   0.99708
 This molecule is an asymmetric top.
 Rotational symmetry number  1.
 Warning -- assumption of classical behavior for rotation
           may cause significant error
 Rotational temperatures (Kelvin)      0.06047     0.02950     0.02703
 Rotational constants (GHZ):           1.26001     0.61468     0.56326
    1 imaginary frequencies ignored.
 Zero-point vibrational energy     585026.3 (Joules/Mol)
                                  139.82463 (Kcal/Mol)
 Warning -- explicit consideration of  21 degrees of freedom as
           vibrations may cause significant error
 Vibrational temperatures:     54.22    97.98   110.16   162.68   187.00
          (Kelvin)            232.91   240.37   274.07   295.07   313.10
                              392.21   415.01   441.72   467.67   493.61
                              519.40   565.57   612.28   674.66   749.08
                              843.97   913.38  1061.03  1123.26  1205.03
                             1370.75  1460.26  1491.52  1511.58  1528.12
                             1551.95  1554.29  1592.38  1638.88  1654.35
                             1694.02  1762.60  1785.02  1923.94  1938.38
                             2036.21  2045.54  2079.68  2091.90  2104.02
                             2117.81  2125.96  2139.85  2156.35  2161.23
                             2165.77  2169.73  2187.59  2236.45  2339.93
                             2366.66  4350.33  4365.28  4406.69  4427.61
                             4440.54  4472.16  4500.45  4528.71  4531.12
                             4534.78  4566.03  4569.96  5073.05  5185.74
                             5344.36

 Zero-point correction=                           0.222825 (Hartree/Particle)
 Thermal correction to Energy=                    0.236851
 Thermal correction to Enthalpy=                  0.237795
 Thermal correction to Gibbs Free Energy=         0.182063
 Sum of electronic and zero-point Energies=           -920.491544
 Sum of electronic and thermal Energies=              -920.477517
 Sum of electronic and thermal Enthalpies=            -920.476573
 Sum of electronic and thermal Free Energies=         -920.532306

                     E (Thermal)             CV                S
                      KCal/Mol        Cal/Mol-Kelvin    Cal/Mol-Kelvin
 Total                  148.626             49.535            117.300
 Electronic               0.000              0.000              0.000
 Translational            0.889              2.981             41.438
 Rotational               0.889              2.981             30.978
 Vibrational            146.849             43.574             44.884
 Vibration     1          0.594              1.982              5.377
 Vibration     2          0.598              1.969              4.208
 Vibration     3          0.599              1.965              3.977
 Vibration     4          0.607              1.939              3.216
 Vibration     5          0.612              1.923              2.946
 Vibration     6          0.622              1.889              2.528
 Vibration     7          0.624              1.883              2.468
 Vibration     8          0.634              1.853              2.223
 Vibration     9          0.640              1.833              2.087
 Vibration    10          0.646              1.814              1.979
 Vibration    11          0.676              1.724              1.580
 Vibration    12          0.685              1.695              1.483
 Vibration    13          0.697              1.660              1.378
 Vibration    14          0.709              1.625              1.285
 Vibration    15          0.722              1.589              1.198
 Vibration    16          0.735              1.553              1.118
 Vibration    17          0.760              1.485              0.988
 Vibration    18          0.787              1.415              0.873
 Vibration    19          0.826              1.319              0.741
 Vibration    20          0.876              1.204              0.608
 Vibration    21          0.944              1.060              0.473

 Optimization completed.
    -- Stationary point found.
 Normal termination of Gaussian 16 at Sun Feb 28 19:25:22 2021.
