 Gaussian 16, Revision A.03,
 Gaussian 16:  ES64L-G16RevA.03 25-Dec-2016

 ----------------------------------------------------------------------
 # wB97XD def2tzvp, opt=(ts, noeigen, calcfc, maxcycles=70, maxstep=5),
  freq=noraman, scrf=(iefpcm, solvent=water)
 ----------------------------------------------------------------------

 ----------------------
 2_iteration/TS-9-2.out
 ----------------------
 Symbolic Z-matrix:
 Charge =  0 Multiplicity = 1

 SCF Done:  E(RwB97XD) =  -749.886196370     A.U. after   14 cycles
 Optimization completed.
    -- Stationary point found.
 Normal termination of Gaussian 16 at Sun Jan 31 17:15:11 2021.

 ---------------------------------------------------------------------
 #N Geom=AllCheck Guess=TCheck SCRF=Check GenChk RwB97XD/def2TZVP Freq
 ---------------------------------------------------------------------

 Structure from the checkpoint file:  "/beegfs/scratch/user/q/tla25/Gau-28446.chk"
 ----------------------
 2_iteration/TS-9-2.out
 ----------------------
 Charge =  0 Multiplicity = 1

                         Standard orientation:
 ---------------------------------------------------------------------
 Center     Atomic      Atomic             Coordinates (Angstroms)
 Number     Number       Type             X           Y           Z
 ---------------------------------------------------------------------
      1          6           0       -0.329189    1.760650   -0.691541
      2          6           0       -1.615588    2.063102   -1.142541
      3          8           0       -1.965447    3.097573   -1.744761
      4          6           0        0.008960    0.603150    0.072079
      5          6           0       -0.800048    2.233541    2.170049
      6          1           0       -0.515127    3.071581    1.539829
      7          1           0       -1.840848    1.992532    1.968719
      8          1           0       -0.679038    2.498041    3.219129
      9          7           0        0.050990    1.089630    1.838779
     10          1           0        1.023971    1.328659    1.998019
     11          1           0       -0.151131    0.289850    2.430699
     12          6           0        1.439759    0.092748   -0.025181
     13          6           0        2.368300    0.664537   -0.886481
     14          6           0        3.666469    0.176295   -0.956401
     15          6           0        4.056158   -0.893526   -0.167801
     16          6           0        3.134717   -1.480854    0.688829
     17          6           0        1.840967   -0.994293    0.753239
     18          1           0        2.078791    1.485707   -1.526261
     19          1           0        4.372010    0.634694   -1.637641
     20          1           0        5.067817   -1.274447   -0.224681
     21          1           0        3.421986   -2.324695    1.302979
     22          1           0        1.129347   -1.480692    1.410119
     23          6           0       -0.990792   -0.540809    0.013039
     24          6           0       -2.020422   -0.746527    0.921169
     25          6           0       -2.910804   -1.802406    0.763419
     26          6           0       -2.788205   -2.666566   -0.309611
     27          6           0       -1.764965   -2.467918   -1.228101
     28          6           0       -0.877703   -1.419839   -1.064831
     29          1           0       -2.169991   -0.083957    1.761469
     30          1           0       -3.704604   -1.939305    1.486499
     31          1           0       -3.482026   -3.488145   -0.432751
     32          1           0       -1.656425   -3.133888   -2.074721
     33          1           0       -0.083153   -1.274620   -1.786091
     34          1           0        0.434212    2.514079   -0.849131
     35          1           0       -2.384829    1.288903   -0.955551
 ---------------------------------------------------------------------

 SCF Done:  E(RwB97XD) =  -749.886196370     A.U. after    1 cycles

 The electronic state is 1-A.
 Alpha  occ. eigenvalues --  -19.18668 -14.50722 -10.36671 -10.32622 -10.32297
 Alpha  occ. eigenvalues --  -10.31151 -10.30903 -10.29743 -10.29689 -10.29495
 Alpha  occ. eigenvalues --  -10.29486 -10.29427 -10.29408 -10.29388 -10.29367
 Alpha  occ. eigenvalues --  -10.29325 -10.29208 -10.24178  -1.08475  -1.06179
 Alpha  occ. eigenvalues --   -0.98299  -0.96890  -0.91465  -0.85903  -0.85793
 Alpha  occ. eigenvalues --   -0.85381  -0.83205  -0.80182  -0.75182  -0.71643
 Alpha  occ. eigenvalues --   -0.71082  -0.70204  -0.67605  -0.65569  -0.62846
 Alpha  occ. eigenvalues --   -0.61990  -0.60202  -0.58262  -0.57145  -0.55986
 Alpha  occ. eigenvalues --   -0.55612  -0.54242  -0.53318  -0.52407  -0.51996
 Alpha  occ. eigenvalues --   -0.51249  -0.51210  -0.48996  -0.48141  -0.47625
 Alpha  occ. eigenvalues --   -0.46984  -0.46457  -0.45369  -0.44371  -0.43822
 Alpha  occ. eigenvalues --   -0.43269  -0.42348  -0.41722  -0.34984  -0.34489
 Alpha  occ. eigenvalues --   -0.34232  -0.33114  -0.30482  -0.27046
 Alpha virt. eigenvalues --    0.02657   0.04117   0.04435   0.05426   0.08569
 Alpha virt. eigenvalues --    0.10450   0.12661   0.12969   0.13602   0.14148
 Alpha virt. eigenvalues --    0.14983   0.15419   0.16254   0.16933   0.17089

 Mulliken charges:
               1
     1  C   -0.459907
     2  C    0.105445
     3  O   -0.567541
     4  C    0.553063
     5  C   -0.298067
     6  H    0.169712
     7  H    0.155833
     8  H    0.171461
     9  N   -0.292149
    10  H    0.292685
    11  H    0.295045
    12  C   -0.032527
    13  C   -0.179804
    14  C   -0.136809
    15  C   -0.137085
    16  C   -0.138598
    17  C   -0.268782
    18  H    0.146038
    19  H    0.144247
    20  H    0.146495
    21  H    0.145239
    22  H    0.165049
    23  C   -0.016714
    24  C   -0.136923
    25  C   -0.180258
    26  C   -0.131204
    27  C   -0.137778
    28  C   -0.285861
    29  H    0.142872
    30  H    0.143241
    31  H    0.145312
    32  H    0.143518
    33  H    0.154014
    34  H    0.115853
    35  H    0.064885
 Sum of Mulliken charges =  -0.00000

 Dipole moment (field-independent basis, Debye):
    X=              5.2289    Y=             -6.2395    Z=             10.3008  Tot=             13.1294
 Quadrupole moment (field-independent basis, Debye-Ang):
   XX=           -103.1567   YY=           -123.1782   ZZ=            -99.6897
   XY=             18.2277   XZ=            -13.6701   YZ=             21.7792

  Exact polarizability: 304.145  -5.952 272.447  -9.375 -22.978 255.129
 Approx polarizability: 235.979  -2.496 221.155 -11.333 -17.510 217.030

 ******    1 imaginary frequencies (negative Signs) ******

                      1                      2                      3
                      A                      A                      A
 Frequencies --   -281.3560                25.4844                44.8909
 Red. masses --      5.4766                 3.2738                 3.8698
 Frc consts  --      0.2554                 0.0013                 0.0046
 IR Inten    --    635.0340                 2.3074                 2.6387

                      4                      5                      6
                      A                      A                      A
 Frequencies --     67.5470                77.3963               100.5879
 Red. masses --      4.8556                 6.1851                 5.7873
 Frc consts  --      0.0131                 0.0218                 0.0345
 IR Inten    --      1.9754                 3.5461                12.1424

                      7                      8                      9
                      A                      A                      A
 Frequencies --    122.7608               125.7952               155.7692
 Red. masses --      1.1397                 3.3897                 3.0195
 Frc consts  --      0.0101                 0.0316                 0.0432
 IR Inten    --      2.1389                13.6326                 5.6089

                     10                     11                     12
                      A                      A                      A
 Frequencies --    216.0243               231.0302               250.3349
 Red. masses --      2.3504                 2.4064                 4.3166
 Frc consts  --      0.0646                 0.0757                 0.1594
 IR Inten    --      6.1325                 4.7314                 7.1650

                     13                     14                     15
                      A                      A                      A
 Frequencies --    279.3221               311.4883               322.6840
 Red. masses --      3.4403                 4.5616                 3.5039
 Frc consts  --      0.1581                 0.2608                 0.2150
 IR Inten    --      6.1194                 2.9461                 7.1381

                     16                     17                     18
                      A                      A                      A
 Frequencies --    332.8564               357.2868               391.0910
 Red. masses --      4.6127                 4.9229                 5.1708
 Frc consts  --      0.3011                 0.3703                 0.4660
 IR Inten    --     42.0912                 1.2203                10.9687

                     19                     20                     21
                      A                      A                      A
 Frequencies --    420.2737               422.3947               497.6049
 Red. masses --      2.8983                 2.9033                 3.8858
 Frc consts  --      0.3016                 0.3052                 0.5669
 IR Inten    --      0.0366                 0.3632                 3.0093

                     22                     23                     24
                      A                      A                      A
 Frequencies --    540.7050               612.8536               630.1040
 Red. masses --      3.6716                 3.1681                 5.2191
 Frc consts  --      0.6325                 0.7011                 1.2209
 IR Inten    --      5.0274                23.3909                67.2857

                     25                     26                     27
                      A                      A                      A
 Frequencies --    637.4311               649.1047               668.8005
 Red. masses --      6.3587                 4.8881                 5.1788
 Frc consts  --      1.5223                 1.2134                 1.3648
 IR Inten    --      1.5059               135.5543                83.4584

                     28                     29                     30
                      A                      A                      A
 Frequencies --    719.2184               726.4039               732.3090
 Red. masses --      1.6377                 1.5827                 1.6443
 Frc consts  --      0.4991                 0.4920                 0.5196
 IR Inten    --     41.0779                95.2538                94.0912

                     31                     32                     33
                      A                      A                      A
 Frequencies --    771.1153               791.6287               800.6119
 Red. masses --      2.3033                 1.5524                 2.0493
 Frc consts  --      0.8069                 0.5732                 0.7739
 IR Inten    --     41.2725               109.3910                42.6754

                     34                     35                     36
                      A                      A                      A
 Frequencies --    836.8369               876.1574               878.8911
 Red. masses --      2.3806                 1.2495                 1.2522
 Frc consts  --      0.9822                 0.5651                 0.5699
 IR Inten    --     29.0504                 0.4639                 1.1548

                     37                     38                     39
                      A                      A                      A
 Frequencies --    925.1439               963.6669               966.0274
 Red. masses --      2.8686                 1.6910                 1.4706
 Frc consts  --      1.4466                 0.9252                 0.8086
 IR Inten    --     20.9628                 7.4879                 1.8962

                     40                     41                     42
                      A                      A                      A
 Frequencies --   1011.7109              1015.7781              1024.6688
 Red. masses --      1.3738                 1.3445                 2.9004
 Frc consts  --      0.8285                 0.8174                 1.7942
 IR Inten    --      1.3322                 3.1624                 2.3841

                     43                     44                     45
                      A                      A                      A
 Frequencies --   1026.8829              1029.5338              1031.4436
 Red. masses --      5.7499                 1.3753                 1.3760
 Frc consts  --      3.5723                 0.8589                 0.8625
 IR Inten    --      3.3377                 2.2052                 3.7024

                     46                     47                     48
                      A                      A                      A
 Frequencies --   1036.6075              1038.6611              1061.5947
 Red. masses --      1.3071                 1.5811                 2.3725
 Frc consts  --      0.8275                 1.0050                 1.5753
 IR Inten    --      6.9886                 5.4966                20.8540

                     49                     50                     51
                      A                      A                      A
 Frequencies --   1066.2048              1069.7394              1091.6579
 Red. masses --      2.3227                 2.4559                 1.5470
 Frc consts  --      1.5557                 1.6558                 1.0862
 IR Inten    --     19.3732                 0.5590               105.5584

                     52                     53                     54
                      A                      A                      A
 Frequencies --   1116.2570              1128.9905              1152.2857
 Red. masses --      1.6522                 1.6239                 2.3625
 Frc consts  --      1.2129                 1.2195                 1.8482
 IR Inten    --     31.5768                 7.7482                56.4182

                     55                     56                     57
                      A                      A                      A
 Frequencies --   1186.1101              1188.0392              1215.0281
 Red. masses --      1.1368                 1.1285                 1.1450
 Frc consts  --      0.9423                 0.9385                 0.9959
 IR Inten    --      0.5387                 0.2459                 2.9666

                     58                     59                     60
                      A                      A                      A
 Frequencies --   1231.2600              1236.3653              1255.4096
 Red. masses --      1.2143                 2.7461                 2.1336
 Frc consts  --      1.0846                 2.4732                 1.9813
 IR Inten    --      2.0206                62.3112               150.8926

                     61                     62                     63
                      A                      A                      A
 Frequencies --   1272.2056              1297.1702              1329.4953
 Red. masses --      1.3573                 2.9572                 4.6558
 Frc consts  --      1.2943                 2.9318                 4.8487
 IR Inten    --     75.6223                55.8106                 8.1207

                     64                     65                     66
                      A                      A                      A
 Frequencies --   1342.4688              1358.6533              1367.9219
 Red. masses --      3.3363                 1.5006                 1.4973
 Frc consts  --      3.5426                 1.6320                 1.6508
 IR Inten    --     61.7317                59.0086                17.2047

                     67                     68                     69
                      A                      A                      A
 Frequencies --   1376.9818              1389.4251              1455.7897
 Red. masses --      1.3666                 1.5275                 1.1960
 Frc consts  --      1.5267                 1.7374                 1.4935
 IR Inten    --     21.6474               469.9759                 2.8316

                     70                     71                     72
                      A                      A                      A
 Frequencies --   1479.1075              1489.2222              1493.1146
 Red. masses --      2.6348                 1.9749                 1.0893
 Frc consts  --      3.3963                 2.5805                 1.4308
 IR Inten    --     41.6119                19.6686                30.3407

                     73                     74                     75
                      A                      A                      A
 Frequencies --   1496.2252              1500.2552              1544.7557
 Red. masses --      2.3234                 1.0785                 2.2475
 Frc consts  --      3.0646                 1.4302                 3.1599
 IR Inten    --     25.3220                22.9302                13.4080

                     76                     77                     78
                      A                      A                      A
 Frequencies --   1549.7624              1637.7008              1649.9534
 Red. masses --      2.1995                 4.0655                 1.5263
 Frc consts  --      3.1125                 6.4244                 2.4480
 IR Inten    --     22.0833              1369.1755                21.0310

                     79                     80                     81
                      A                      A                      A
 Frequencies --   1655.7799              1657.0566              1674.8684
 Red. masses --      3.3832                 3.0628                 5.7759
 Frc consts  --      5.4649                 4.9549                 9.5463
 IR Inten    --    160.4990                 2.1725                 2.6175

                     82                     83                     84
                      A                      A                      A
 Frequencies --   1678.3862              2923.5153              3089.1350
 Red. masses --      5.6059                 1.0802                 1.0338
 Frc consts  --      9.3041                 5.4396                 5.8122
 IR Inten    --      3.9854               169.2332                19.6722

                     85                     86                     87
                      A                      A                      A
 Frequencies --   3175.7623              3180.1082              3188.8642
 Red. masses --      1.1051                 1.0869                 1.1052
 Frc consts  --      6.5665                 6.4764                 6.6215
 IR Inten    --      7.2930                25.9741                 8.8645

                     88                     89                     90
                      A                      A                      A
 Frequencies --   3191.7164              3197.2145              3200.6814
 Red. masses --      1.0877                 1.0862                 1.0879
 Frc consts  --      6.5282                 6.5421                 6.5666
 IR Inten    --      7.2282                 1.5999                 0.9923

                     91                     92                     93
                      A                      A                      A
 Frequencies --   3204.1606              3211.1147              3212.9614
 Red. masses --      1.0889                 1.0927                 1.0935
 Frc consts  --      6.5867                 6.6383                 6.6508
 IR Inten    --      2.5744                20.4856                25.6503

                     94                     95                     96
                      A                      A                      A
 Frequencies --   3222.5725              3223.3964              3235.3801
 Red. masses --      1.0973                 1.0976                 1.0931
 Frc consts  --      6.7137                 6.7193                 6.7417
 IR Inten    --     23.4796                24.2911                10.4159

                     97                     98                     99
                      A                      A                      A
 Frequencies --   3241.8510              3512.9651              3586.3491
 Red. masses --      1.0917                 1.0519                 1.0953
 Frc consts  --      6.7601                 7.6483                 8.3001
 IR Inten    --     13.8615                53.5609                56.5548

 - Thermochemistry -
 -------------------
 Temperature   298.150 Kelvin.  Pressure   1.00000 Atm.
 Atom     1 has atomic number  6 and mass  12.00000

 Molecular mass:   239.13101 amu.
 Principal axes and moments of inertia in atomic units:
                           1         2         3
     Eigenvalues --  3514.573275099.841216425.39283
           X            0.99975   0.01669  -0.01501
           Y           -0.01605   0.99899   0.04191
           Z            0.01569  -0.04166   0.99901
 This molecule is an asymmetric top.
 Rotational symmetry number  1.
 Warning -- assumption of classical behavior for rotation
           may cause significant error
 Rotational temperatures (Kelvin)      0.02464     0.01698     0.01348
 Rotational constants (GHZ):           0.51350     0.35388     0.28088
    1 imaginary frequencies ignored.
 Zero-point vibrational energy     772715.3 (Joules/Mol)
                                  184.68339 (Kcal/Mol)
 Warning -- explicit consideration of  22 degrees of freedom as
           vibrations may cause significant error
 Vibrational temperatures:     36.67    64.59    97.19   111.36   144.72
          (Kelvin)            176.63   180.99   224.12   310.81   332.40
                              360.18   401.88   448.16   464.27   478.91
                              514.06   562.69   604.68   607.73   715.94
                              777.95   881.76   906.58   917.12   933.92
                              962.25  1034.79  1045.13  1053.63  1109.46
                             1138.98  1151.90  1204.02  1260.60  1264.53
                             1331.08  1386.50  1389.90  1455.63  1461.48
                             1474.27  1477.46  1481.27  1484.02  1491.45
                             1494.40  1527.40  1534.03  1539.12  1570.65
                             1606.04  1624.37  1657.88  1706.55  1709.32
                             1748.15  1771.51  1778.85  1806.25  1830.42
                             1866.34  1912.85  1931.51  1954.80  1968.13
                             1981.17  1999.07  2094.56  2128.11  2142.66
                             2148.26  2152.73  2158.53  2222.56  2229.76
                             2356.29  2373.91  2382.30  2384.13  2409.76
                             2414.82  4206.29  4444.58  4569.21  4575.47
                             4588.06  4592.17  4600.08  4605.07  4610.07
                             4620.08  4622.73  4636.56  4637.75  4654.99
                             4664.30  5054.37  5159.96

 Zero-point correction=                           0.294312 (Hartree/Particle)
 Thermal correction to Energy=                    0.310273
 Thermal correction to Enthalpy=                  0.311217
 Thermal correction to Gibbs Free Energy=         0.249941
 Sum of electronic and zero-point Energies=           -749.591885
 Sum of electronic and thermal Energies=              -749.575924
 Sum of electronic and thermal Enthalpies=            -749.574980
 Sum of electronic and thermal Free Energies=         -749.636256

                     E (Thermal)             CV                S
                      KCal/Mol        Cal/Mol-Kelvin    Cal/Mol-Kelvin
 Total                  194.699             61.734            128.966
 Electronic               0.000              0.000              0.000
 Translational            0.889              2.981             42.317
 Rotational               0.889              2.981             33.110
 Vibrational            192.921             55.773             53.540
 Vibration     1          0.593              1.985              6.153
 Vibration     2          0.595              1.979              5.031
 Vibration     3          0.598              1.970              4.224
 Vibration     4          0.599              1.964              3.956
 Vibration     5          0.604              1.949              3.443
 Vibration     6          0.610              1.930              3.056
 Vibration     7          0.611              1.927              3.009
 Vibration     8          0.620              1.896              2.601
 Vibration     9          0.645              1.817              1.992
 Vibration    10          0.653              1.794              1.871
 Vibration    11          0.663              1.762              1.728
 Vibration    12          0.680              1.712              1.538
 Vibration    13          0.700              1.652              1.354
 Vibration    14          0.708              1.630              1.296
 Vibration    15          0.715              1.610              1.246
 Vibration    16          0.732              1.560              1.134
 Vibration    17          0.759              1.489              0.996
 Vibration    18          0.783              1.426              0.891
 Vibration    19          0.785              1.422              0.884
 Vibration    20          0.853              1.255              0.664
 Vibration    21          0.896              1.160              0.564
 Vibration    22          0.972              1.005              0.428

 Optimization completed.
    -- Stationary point found.
 Normal termination of Gaussian 16 at Sun Jan 31 19:10:22 2021.
