 Gaussian 16, Revision A.03,
 Gaussian 16:  ES64L-G16RevA.03 25-Dec-2016

 ----------------------------------------------------------------------
 # wB97XD def2tzvp, opt=(ts, noeigen, calcfc, maxcycles=70, maxstep=5),
  freq=noraman, scrf=(iefpcm, solvent=water)
 ----------------------------------------------------------------------

 ------------------------
 2_iteration/TS-944-2.out
 ------------------------
 Symbolic Z-matrix:
 Charge =  0 Multiplicity = 1

 SCF Done:  E(RwB97XD) =  -3591.36490463     A.U. after   15 cycles
 SCF Done:  E(RwB97XD) =  -3591.36490423     A.U. after    7 cycles
 Optimization completed.
    -- Stationary point found.
 Normal termination of Gaussian 16 at Mon Mar  1 01:26:17 2021.

 ---------------------------------------------------------------------
 #N Geom=AllCheck Guess=TCheck SCRF=Check GenChk RwB97XD/def2TZVP Freq
 ---------------------------------------------------------------------

 Structure from the checkpoint file:  "/beegfs/scratch/user/q/tla25/Gau-53709.chk"
 ------------------------
 2_iteration/TS-944-2.out
 ------------------------
 Charge =  0 Multiplicity = 1

                         Standard orientation:
 ---------------------------------------------------------------------
 Center     Atomic      Atomic             Coordinates (Angstroms)
 Number     Number       Type             X           Y           Z
 ---------------------------------------------------------------------
      1          6           0        0.938808    1.191331   -0.447293
      2          6           0       -0.418352    1.589469   -0.711595
      3          8           0       -0.679071    2.634298   -1.318595
      4          6           0        1.338514   -0.093553   -0.077574
      5          6           0        1.651701    0.727697    2.556133
      6          1           0        1.351973    0.643312    3.599515
      7          1           0        2.734185    0.810610    2.493146
      8          1           0        1.197804    1.619316    2.120628
      9          7           0        1.211619   -0.429562    1.787669
     10          1           0        1.743679   -1.266001    2.003677
     11          1           0        0.228496   -0.629918    1.941327
     12         17           0        3.066195   -0.440847   -0.257255
     13         35           0        0.351195   -1.676219   -0.657979
     14          6           0        1.984934    2.264868   -0.665757
     15          1           0        2.765641    2.240397    0.093796
     16          1           0        2.472181    2.180467   -1.641628
     17          1           0        1.501536    3.238833   -0.625103
     18          6           0       -1.600572    0.808635   -0.205208
     19          6           0       -2.539185    0.306947   -1.101235
     20          6           0       -3.656904   -0.366679   -0.639146
     21          6           0       -3.865394   -0.520500    0.726451
     22          6           0       -2.956824    0.015509    1.625602
     23          6           0       -1.828077    0.676435    1.159310
     24          1           0       -2.376977    0.427466   -2.165154
     25          1           0       -4.370520   -0.773560   -1.344520
     26          1           0       -4.740720   -1.045945    1.086419
     27          1           0       -3.125697   -0.075261    2.691085
     28          1           0       -1.139391    1.123949    1.866358
 ---------------------------------------------------------------------

 SCF Done:  E(RwB97XD) =  -3591.36490423     A.U. after    1 cycles

 The electronic state is 1-A.
 Alpha  occ. eigenvalues -- -483.14009-101.71220 -62.68849 -56.47983 -56.47604
 Alpha  occ. eigenvalues --  -56.47592 -19.21460 -14.50349 -10.45049 -10.36284
 Alpha  occ. eigenvalues --  -10.32454 -10.30084 -10.29670 -10.29482 -10.29372
 Alpha  occ. eigenvalues --  -10.29305 -10.29278 -10.27826 -10.27165  -9.59815
 Alpha  occ. eigenvalues --   -8.82952  -7.34482  -7.33585  -7.33542  -6.65150
 Alpha  occ. eigenvalues --   -6.63952  -6.63911  -2.75525  -2.75191  -2.75159
 Alpha  occ. eigenvalues --   -2.74190  -2.74190  -1.12254  -1.06142  -0.99376
 Alpha  occ. eigenvalues --   -0.97017  -0.90185  -0.87764  -0.86064  -0.85569
 Alpha  occ. eigenvalues --   -0.79933  -0.77377  -0.73444  -0.70985  -0.68780
 Alpha  occ. eigenvalues --   -0.64990  -0.63278  -0.59772  -0.58664  -0.57578
 Alpha  occ. eigenvalues --   -0.55904  -0.55101  -0.54405  -0.53292  -0.51437
 Alpha  occ. eigenvalues --   -0.50589  -0.49708  -0.49053  -0.48310  -0.47640
 Alpha  occ. eigenvalues --   -0.46027  -0.45612  -0.45031  -0.44105  -0.42743
 Alpha  occ. eigenvalues --   -0.41605  -0.40626  -0.38149  -0.37771  -0.34283
 Alpha  occ. eigenvalues --   -0.34178  -0.32044  -0.28237
 Alpha virt. eigenvalues --    0.02151   0.02800   0.04692   0.05724   0.08428
 Alpha virt. eigenvalues --    0.10306   0.12982   0.13441   0.14501   0.14734
 Alpha virt. eigenvalues --    0.15714   0.16496   0.16954   0.18215   0.18959

 Mulliken charges:
               1
     1  C   -0.301158
     2  C    0.271370
     3  O   -0.485230
     4  C    0.178808
     5  C   -0.329502
     6  H    0.176216
     7  H    0.171786
     8  H    0.168850
     9  N   -0.299803
    10  H    0.298729
    11  H    0.286939
    12  Cl  -0.057831
    13  Br  -0.065590
    14  C   -0.388695
    15  H    0.133451
    16  H    0.129853
    17  H    0.133489
    18  C    0.192171
    19  C   -0.243421
    20  C   -0.126501
    21  C   -0.153390
    22  C   -0.128868
    23  C   -0.334304
    24  H    0.140050
    25  H    0.144924
    26  H    0.146230
    27  H    0.144502
    28  H    0.196926
 Sum of Mulliken charges =  -0.00000

 Dipole moment (field-independent basis, Debye):
    X=              2.0087    Y=             -5.3182    Z=              8.5771  Tot=             10.2900
 Quadrupole moment (field-independent basis, Debye-Ang):
   XX=           -101.0551   YY=           -123.3909   ZZ=            -94.9709
   XY=              8.4869   XZ=              5.7226   YZ=              6.5462

  Exact polarizability: 271.472  12.419 233.974  12.464 -18.274 240.519
 Approx polarizability: 212.300  10.543 197.061   9.539 -14.439 206.801

 ******    1 imaginary frequencies (negative Signs) ******

                      1                      2                      3
                      A                      A                      A
 Frequencies --   -382.7995                35.9985                52.7336
 Red. masses --      5.9674                 7.0292                 4.7101
 Frc consts  --      0.5152                 0.0054                 0.0077
 IR Inten    --    866.0149                 2.3791                 5.6497

                      4                      5                      6
                      A                      A                      A
 Frequencies --     70.0815                81.5181               110.3804
 Red. masses --      6.6194                 3.3343                 2.9734
 Frc consts  --      0.0192                 0.0131                 0.0213
 IR Inten    --      4.3059                 1.3554                 4.8763

                      7                      8                      9
                      A                      A                      A
 Frequencies --    139.0707               146.9513               156.6055
 Red. masses --      4.6627                 3.6697                 1.2216
 Frc consts  --      0.0531                 0.0467                 0.0177
 IR Inten    --      2.2685                 0.9013                 2.6565

                     10                     11                     12
                      A                      A                      A
 Frequencies --    189.2373               192.8850               224.5427
 Red. masses --      2.7120                 1.4564                 7.9689
 Frc consts  --      0.0572                 0.0319                 0.2367
 IR Inten    --      3.2135                 3.1194                 3.9385

                     13                     14                     15
                      A                      A                      A
 Frequencies --    235.2645               250.6585               284.5194
 Red. masses --      3.7694                 5.5089                 4.7088
 Frc consts  --      0.1229                 0.2039                 0.2246
 IR Inten    --      9.7598                20.6036                13.9150

                     16                     17                     18
                      A                      A                      A
 Frequencies --    294.7951               355.6360               376.1994
 Red. masses --      4.1368                 4.0987                 4.1328
 Frc consts  --      0.2118                 0.3054                 0.3446
 IR Inten    --     11.7800                 0.0322                23.8733

                     19                     20                     21
                      A                      A                      A
 Frequencies --    407.9067               421.9454               427.7908
 Red. masses --      4.2752                 3.3217                 5.1761
 Frc consts  --      0.4191                 0.3484                 0.5581
 IR Inten    --     30.6147                 0.6448                11.5219

                     22                     23                     24
                      A                      A                      A
 Frequencies --    537.2869               583.2091               635.4641
 Red. masses --      5.8095                 3.8508                 6.4013
 Frc consts  --      0.9881                 0.7717                 1.5230
 IR Inten    --    135.5099                24.3680                 0.4924

                     25                     26                     27
                      A                      A                      A
 Frequencies --    656.2597               689.6248               732.4062
 Red. masses --      2.2503                 2.6290                 1.6527
 Frc consts  --      0.5710                 0.7367                 0.5223
 IR Inten    --     14.8179                65.1988                83.6916

                     28                     29                     30
                      A                      A                      A
 Frequencies --    760.6362               791.4161               815.3568
 Red. masses --      3.5976                 4.9809                 2.9906
 Frc consts  --      1.2264                 1.8381                 1.1714
 IR Inten    --     35.0688               122.6935                65.1158

                     31                     32                     33
                      A                      A                      A
 Frequencies --    823.5050               885.6610               955.6203
 Red. masses --      3.9115                 1.2619                 1.9027
 Frc consts  --      1.5629                 0.5832                 1.0237
 IR Inten    --    191.9188                 0.2494                 7.8269

                     34                     35                     36
                      A                      A                      A
 Frequencies --    976.2832              1013.3517              1018.2410
 Red. masses --      1.9288                 1.3587                 1.6003
 Frc consts  --      1.0831                 0.8221                 0.9776
 IR Inten    --     92.2113                10.9167                 6.8732

                     37                     38                     39
                      A                      A                      A
 Frequencies --   1027.0254              1033.5061              1039.3268
 Red. masses --      2.8881                 1.3794                 1.7037
 Frc consts  --      1.7948                 0.8681                 1.0843
 IR Inten    --     12.5646                 2.6369               316.6323

                     40                     41                     42
                      A                      A                      A
 Frequencies --   1054.5344              1062.0471              1065.3307
 Red. masses --      1.1743                 1.7989                 1.4743
 Frc consts  --      0.7694                 1.1955                 0.9858
 IR Inten    --     69.3671                22.8083                 9.1651

                     43                     44                     45
                      A                      A                      A
 Frequencies --   1080.8236              1111.4989              1184.0757
 Red. masses --      4.4830                 1.5411                 1.1381
 Frc consts  --      3.0856                 1.1218                 0.9401
 IR Inten    --     69.7915                13.1413                 0.2816

                     46                     47                     48
                      A                      A                      A
 Frequencies --   1204.5522              1209.2947              1225.3234
 Red. masses --      1.3120                 2.5281                 1.3903
 Frc consts  --      1.1216                 2.1782                 1.2299
 IR Inten    --      1.4332                 3.3259                38.5792

                     49                     50                     51
                      A                      A                      A
 Frequencies --   1321.1244              1340.1927              1355.7975
 Red. masses --      4.0626                 1.3211                 1.6227
 Frc consts  --      4.1778                 1.3980                 1.7574
 IR Inten    --     31.6035                 7.9189                67.1857

                     52                     53                     54
                      A                      A                      A
 Frequencies --   1370.3633              1384.5609              1417.3861
 Red. masses --      4.4249                 5.9919                 1.2507
 Frc consts  --      4.8959                 6.7677                 1.4804
 IR Inten    --   1210.3739               307.1545                77.9734

                     55                     56                     57
                      A                      A                      A
 Frequencies --   1452.0140              1484.7750              1488.8921
 Red. masses --      1.1989                 1.0734                 2.0676
 Frc consts  --      1.4892                 1.3943                 2.7005
 IR Inten    --      8.1413                26.9256                 8.8671

                     58                     59                     60
                      A                      A                      A
 Frequencies --   1493.2793              1496.9744              1502.5237
 Red. masses --      1.0446                 1.0712                 1.0516
 Frc consts  --      1.3724                 1.4143                 1.3987
 IR Inten    --      2.6373                80.7154                82.5196

                     61                     62                     63
                      A                      A                      A
 Frequencies --   1541.2719              1627.9956              1635.5573
 Red. masses --      2.3532                 9.8552                 1.0995
 Frc consts  --      3.2936                15.3894                 1.7329
 IR Inten    --      5.7390               720.3414                26.4235

                     64                     65                     66
                      A                      A                      A
 Frequencies --   1650.4047              1674.6041              3041.8411
 Red. masses --      5.9509                 5.9057                 1.0466
 Frc consts  --      9.5503                 9.7576                 5.7058
 IR Inten    --     30.1954                 1.4869                80.8900

                     67                     68                     69
                      A                      A                      A
 Frequencies --   3067.1565              3114.2916              3146.8507
 Red. masses --      1.0347                 1.0905                 1.1029
 Frc consts  --      5.7349                 6.2316                 6.4347
 IR Inten    --     24.7062                34.6836                 6.2690

                     70                     71                     72
                      A                      A                      A
 Frequencies --   3156.0524              3174.9389              3191.1435
 Red. masses --      1.1010                 1.1059                 1.0870
 Frc consts  --      6.4611                 6.5682                 6.5219
 IR Inten    --     12.0304                 7.9741                 6.1503

                     73                     74                     75
                      A                      A                      A
 Frequencies --   3197.1912              3205.7356              3213.5307
 Red. masses --      1.0873                 1.0910                 1.0951
 Frc consts  --      6.5483                 6.6060                 6.6631
 IR Inten    --      0.3443                 8.2102                35.1515

                     76                     77                     78
                      A                      A                      A
 Frequencies --   3223.4326              3509.0730              3594.4089
 Red. masses --      1.0989                 1.0509                 1.0968
 Frc consts  --      6.7271                 7.6243                 8.3493
 IR Inten    --     17.4169                60.1430               105.6052

 - Thermochemistry -
 -------------------
 Temperature   298.150 Kelvin.  Pressure   1.00000 Atm.
 Atom     1 has atomic number  6 and mass  12.00000

 Molecular mass:   288.98690 amu.
 Principal axes and moments of inertia in atomic units:
                           1         2         3
     Eigenvalues --  2964.796765323.992005952.52220
           X            0.99879   0.04790   0.01137
           Y           -0.04729   0.99770  -0.04861
           Z           -0.01367   0.04802   0.99875
 This molecule is an asymmetric top.
 Rotational symmetry number  1.
 Warning -- assumption of classical behavior for rotation
           may cause significant error
 Rotational temperatures (Kelvin)      0.02921     0.01627     0.01455
 Rotational constants (GHZ):           0.60872     0.33898     0.30319
    1 imaginary frequencies ignored.
 Zero-point vibrational energy     578392.9 (Joules/Mol)
                                  138.23923 (Kcal/Mol)
 Warning -- explicit consideration of  22 degrees of freedom as
           vibrations may cause significant error
 Vibrational temperatures:     51.79    75.87   100.83   117.29   158.81
          (Kelvin)            200.09   211.43   225.32   272.27   277.52
                              323.07   338.49   360.64   409.36   424.14
                              511.68   541.27   586.89   607.09   615.50
                              773.04   839.11   914.29   944.21   992.22
                             1053.77  1094.39  1138.67  1173.12  1184.84
                             1274.27  1374.92  1404.65  1457.99  1465.02
                             1477.66  1486.98  1495.36  1517.24  1528.05
                             1532.77  1555.06  1599.20  1703.62  1733.08
                             1739.91  1762.97  1900.80  1928.24  1950.69
                             1971.65  1992.07  2039.30  2089.12  2136.26
                             2142.18  2148.50  2153.81  2161.80  2217.55
                             2342.32  2353.20  2374.56  2409.38  4376.53
                             4412.95  4480.77  4527.62  4540.86  4568.03
                             4591.34  4600.05  4612.34  4623.55  4637.80
                             5048.77  5171.55

 Zero-point correction=                           0.220298 (Hartree/Particle)
 Thermal correction to Energy=                    0.235925
 Thermal correction to Enthalpy=                  0.236870
 Thermal correction to Gibbs Free Energy=         0.176114
 Sum of electronic and zero-point Energies=          -3591.144606
 Sum of electronic and thermal Energies=             -3591.128979
 Sum of electronic and thermal Enthalpies=           -3591.128035
 Sum of electronic and thermal Free Energies=        -3591.188791

                     E (Thermal)             CV                S
                      KCal/Mol        Cal/Mol-Kelvin    Cal/Mol-Kelvin
 Total                  148.045             56.519            127.872
 Electronic               0.000              0.000              0.000
 Translational            0.889              2.981             42.881
 Rotational               0.889              2.981             32.907
 Vibrational            146.268             50.557             52.083
 Vibration     1          0.594              1.982              5.468
 Vibration     2          0.596              1.977              4.712
 Vibration     3          0.598              1.968              4.151
 Vibration     4          0.600              1.962              3.854
 Vibration     5          0.606              1.941              3.262
 Vibration     6          0.615              1.914              2.817
 Vibration     7          0.617              1.906              2.711
 Vibration     8          0.620              1.895              2.590
 Vibration     9          0.633              1.855              2.235
 Vibration    10          0.635              1.850              2.200
 Vibration    11          0.649              1.804              1.922
 Vibration    12          0.655              1.787              1.838
 Vibration    13          0.663              1.762              1.726
 Vibration    14          0.683              1.702              1.506
 Vibration    15          0.689              1.683              1.446
 Vibration    16          0.731              1.564              1.141
 Vibration    17          0.747              1.521              1.054
 Vibration    18          0.772              1.453              0.934
 Vibration    19          0.784              1.423              0.885
 Vibration    20          0.789              1.410              0.866
 Vibration    21          0.892              1.168              0.571
 Vibration    22          0.940              1.068              0.479

 Optimization completed.
    -- Stationary point found.
 Normal termination of Gaussian 16 at Mon Mar  1 03:00:59 2021.
