 Gaussian 16, Revision A.03,
 Gaussian 16:  ES64L-G16RevA.03 25-Dec-2016

 ----------------------------------------------------------------------
 # wB97XD def2tzvp, opt=(ts, noeigen, calcfc, maxcycles=70, maxstep=8),
  freq=noraman, scrf=(iefpcm, solvent=water)
 ----------------------------------------------------------------------

 ------------------------
 1_iteration/TS-996-1.out
 ------------------------
 Symbolic Z-matrix:
 Charge =  0 Multiplicity = 1

 SCF Done:  E(RwB97XD) =  -1781.15024805     A.U. after   15 cycles
 SCF Done:  E(RwB97XD) =  -1781.15249021     A.U. after   13 cycles
 SCF Done:  E(RwB97XD) =  -1781.15468230     A.U. after   13 cycles
 SCF Done:  E(RwB97XD) =  -1781.15676333     A.U. after   13 cycles
 SCF Done:  E(RwB97XD) =  -1781.15791184     A.U. after   13 cycles
 SCF Done:  E(RwB97XD) =  -1781.15784025     A.U. after   13 cycles
 SCF Done:  E(RwB97XD) =  -1781.15809174     A.U. after   13 cycles
 SCF Done:  E(RwB97XD) =  -1781.15809146     A.U. after   11 cycles
 SCF Done:  E(RwB97XD) =  -1781.15811634     A.U. after   11 cycles
 SCF Done:  E(RwB97XD) =  -1781.15811825     A.U. after   11 cycles
 SCF Done:  E(RwB97XD) =  -1781.15811980     A.U. after   10 cycles
 SCF Done:  E(RwB97XD) =  -1781.15811983     A.U. after    9 cycles
 SCF Done:  E(RwB97XD) =  -1781.15811990     A.U. after    8 cycles
 SCF Done:  E(RwB97XD) =  -1781.15812005     A.U. after    8 cycles
 Optimization completed.
    -- Stationary point found.
 Normal termination of Gaussian 16 at Sun Feb 28 14:20:50 2021.

 ---------------------------------------------------------------------
 #N Geom=AllCheck Guess=TCheck SCRF=Check GenChk RwB97XD/def2TZVP Freq
 ---------------------------------------------------------------------

 Structure from the checkpoint file:  "/beegfs/scratch/user/q/tla25/Gau-23088.chk"
 ------------------------
 1_iteration/TS-996-1.out
 ------------------------
 Charge =  0 Multiplicity = 1

                         Standard orientation:
 ---------------------------------------------------------------------
 Center     Atomic      Atomic             Coordinates (Angstroms)
 Number     Number       Type             X           Y           Z
 ---------------------------------------------------------------------
      1          6           0       -0.127617    0.721893   -0.285756
      2          6           0       -1.567028    0.584887   -0.178598
      3          8           0       -2.370555    1.484632   -0.311520
      4          6           0        0.767846   -0.336437   -0.310991
      5          6           0        0.898272   -0.294547    2.516011
      6          1           0        0.703243   -0.764098    3.479956
      7          1           0        1.897496    0.135903    2.519740
      8          1           0        0.166907    0.498159    2.355394
      9          7           0        0.788387   -1.251222    1.425294
     10          1           0        1.524722   -1.947815    1.435945
     11          1           0       -0.110261   -1.721316    1.428507
     12         17           0        2.466783    0.035446   -0.456252
     13         17           0        0.383906   -1.783277   -1.260553
     14         17           0        0.446761    2.363469   -0.177274
     15          8           0       -1.939444   -0.667575    0.141969
     16          6           0       -3.341207   -0.918309    0.206309
     17          1           0       -3.439569   -1.975853    0.434664
     18          1           0       -3.803012   -0.319620    0.990722
     19          1           0       -3.816506   -0.694027   -0.748079
 ---------------------------------------------------------------------

 SCF Done:  E(RwB97XD) =  -1781.15812005     A.U. after    1 cycles

 The electronic state is 1-A.
 Alpha  occ. eigenvalues -- -101.72008-101.71269-101.69759 -19.29784 -19.22934
 Alpha  occ. eigenvalues --  -14.49067 -10.46086 -10.41795 -10.33358 -10.33245
 Alpha  occ. eigenvalues --  -10.32027  -9.60584  -9.59853  -9.58270  -7.35274
 Alpha  occ. eigenvalues --   -7.34543  -7.34346  -7.34298  -7.33604  -7.33576
 Alpha  occ. eigenvalues --   -7.32946  -7.32032  -7.32024  -1.21402  -1.11843
 Alpha  occ. eigenvalues --   -1.05889  -1.01658  -0.96188  -0.94050  -0.86091
 Alpha  occ. eigenvalues --   -0.80485  -0.79312  -0.71508  -0.65085  -0.63886
 Alpha  occ. eigenvalues --   -0.61219  -0.59074  -0.58279  -0.57537  -0.55462
 Alpha  occ. eigenvalues --   -0.54874  -0.53040  -0.49738  -0.49509  -0.48695
 Alpha  occ. eigenvalues --   -0.47928  -0.45499  -0.43239  -0.43176  -0.42534
 Alpha  occ. eigenvalues --   -0.41086  -0.39282  -0.38982  -0.38649  -0.36701
 Alpha  occ. eigenvalues --   -0.28947
 Alpha virt. eigenvalues --    0.02046   0.06042   0.06704   0.10458   0.13458
 Alpha virt. eigenvalues --    0.13820   0.14765   0.16013   0.16680   0.17803
 Alpha virt. eigenvalues --    0.19095   0.20222   0.20452   0.20849   0.21308

 Mulliken charges:
               1
     1  C   -0.275307
     2  C    0.410961
     3  O   -0.458512
     4  C    0.205861
     5  C   -0.292380
     6  H    0.161723
     7  H    0.158132
     8  H    0.156910
     9  N   -0.355480
    10  H    0.293784
    11  H    0.288361
    12  Cl  -0.032067
    13  Cl  -0.052565
    14  Cl  -0.126226
    15  O   -0.304665
    16  C   -0.195682
    17  H    0.144802
    18  H    0.135450
    19  H    0.136901
 Sum of Mulliken charges =  -0.00000

 Dipole moment (field-independent basis, Debye):
    X=              1.9673    Y=             -7.3950    Z=              5.6801  Tot=              9.5300
 Quadrupole moment (field-independent basis, Debye-Ang):
   XX=            -82.2105   YY=            -88.3626   ZZ=            -77.1089
   XY=              7.5101   XZ=              2.1362   YZ=             -3.8415

  Exact polarizability: 175.734  -9.985 172.099   7.514  -5.695 136.735
 Approx polarizability: 142.284  -6.553 147.853   4.959  -3.632 117.331

 ******    1 imaginary frequencies (negative Signs) ******

                      1                      2                      3
                      A                      A                      A
 Frequencies --   -358.7276                52.7611                70.5652
 Red. masses --      5.9068                 4.3993                 5.1466
 Frc consts  --      0.4478                 0.0072                 0.0151
 IR Inten    --    757.2740                 1.6109                 1.8610

                      4                      5                      6
                      A                      A                      A
 Frequencies --     86.3839               105.1018               125.6060
 Red. masses --      3.2831                 3.9498                 3.4764
 Frc consts  --      0.0144                 0.0257                 0.0323
 IR Inten    --      3.0005                 5.8543                 4.8727

                      7                      8                      9
                      A                      A                      A
 Frequencies --    153.3726               162.8809               183.0683
 Red. masses --      1.2055                 1.5694                 2.9822
 Frc consts  --      0.0167                 0.0245                 0.0589
 IR Inten    --      1.3479                 1.1064                 5.1696

                     10                     11                     12
                      A                      A                      A
 Frequencies --    199.2644               224.1356               249.4142
 Red. masses --      3.6750                10.4037                 5.1279
 Frc consts  --      0.0860                 0.3079                 0.1879
 IR Inten    --      8.1802                 0.8182                 6.8621

                     13                     14                     15
                      A                      A                      A
 Frequencies --    278.8736               295.8371               321.2433
 Red. masses --      6.2896                 5.2758                 8.7634
 Frc consts  --      0.2882                 0.2720                 0.5328
 IR Inten    --     11.0292                 1.1283                33.3742

                     16                     17                     18
                      A                      A                      A
 Frequencies --    337.9734               402.3902               448.1888
 Red. masses --      5.7129                13.2312                12.1480
 Frc consts  --      0.3845                 1.2622                 1.4377
 IR Inten    --     28.9315                 6.9217                 7.2676

                     19                     20                     21
                      A                      A                      A
 Frequencies --    520.6117               644.7313               748.6713
 Red. masses --      7.8256                 1.5035                 4.5891
 Frc consts  --      1.2497                 0.3682                 1.5155
 IR Inten    --    131.2885                 4.3082                70.1199

                     22                     23                     24
                      A                      A                      A
 Frequencies --    786.8664               797.2296               894.6232
 Red. masses --     11.4163                 9.9000                 5.7069
 Frc consts  --      4.1646                 3.7072                 2.6911
 IR Inten    --     56.3765               234.5086               107.3953

                     25                     26                     27
                      A                      A                      A
 Frequencies --    957.7043               998.7786              1033.8534
 Red. masses --      6.8074                 1.1022                 1.1255
 Frc consts  --      3.6787                 0.6478                 0.7088
 IR Inten    --     20.3956                49.0769                89.3109

                     28                     29                     30
                      A                      A                      A
 Frequencies --   1086.1297              1125.4416              1181.8862
 Red. masses --      4.9830                 8.3389                 1.2817
 Frc consts  --      3.4634                 6.2231                 1.0548
 IR Inten    --     37.8978               168.4490                 1.8293

                     31                     32                     33
                      A                      A                      A
 Frequencies --   1209.9615              1218.7475              1300.7507
 Red. masses --      1.4244                 1.5593                 7.0222
 Frc consts  --      1.2287                 1.3646                 7.0002
 IR Inten    --     31.7144                82.9514               869.1011

                     34                     35                     36
                      A                      A                      A
 Frequencies --   1343.2996              1413.4476              1462.1227
 Red. masses --      1.3292                 6.4608                 1.2659
 Frc consts  --      1.4131                 7.6049                 1.5944
 IR Inten    --      0.9643               745.9414                32.5678

                     37                     38                     39
                      A                      A                      A
 Frequencies --   1479.4902              1482.6330              1490.9175
 Red. masses --      1.1851                 1.0580                 1.0417
 Frc consts  --      1.5284                 1.3702                 1.3643
 IR Inten    --     38.1010                15.6064                24.0008

                     40                     41                     42
                      A                      A                      A
 Frequencies --   1495.3610              1501.8673              1636.8620
 Red. masses --      1.0589                 1.0329                 1.0935
 Frc consts  --      1.3951                 1.3727                 1.7262
 IR Inten    --     23.0666                11.2661                75.1066

                     43                     44                     45
                      A                      A                      A
 Frequencies --   1730.7046              3068.3139              3070.3713
 Red. masses --     11.5363                 1.0331                 1.0304
 Frc consts  --     20.3593                 5.7306                 5.7233
 IR Inten    --    940.5615                26.9057                49.3275

                     46                     47                     48
                      A                      A                      A
 Frequencies --   3143.8960              3150.3761              3168.1792
 Red. masses --      1.1047                 1.1073                 1.1054
 Frc consts  --      6.4333                 6.4751                 6.5371
 IR Inten    --      9.9267                29.5943                10.8292

                     49                     50                     51
                      A                      A                      A
 Frequencies --   3182.6374              3519.5278              3608.8159
 Red. masses --      1.1061                 1.0502                 1.0976
 Frc consts  --      6.6012                 7.6644                 8.4220
 IR Inten    --     17.7198                63.0272                80.1378

 - Thermochemistry -
 -------------------
 Temperature   298.150 Kelvin.  Pressure   1.00000 Atm.
 Atom     1 has atomic number  6 and mass  12.00000

 Molecular mass:   218.96206 amu.
 Principal axes and moments of inertia in atomic units:
                           1         2         3
     Eigenvalues --  2170.302462905.616333633.78182
           X            0.99909   0.03822   0.01919
           Y           -0.03734   0.99831  -0.04443
           Z           -0.02086   0.04368   0.99883
 This molecule is an asymmetric top.
 Rotational symmetry number  1.
 Warning -- assumption of classical behavior for rotation
           may cause significant error
 Rotational temperatures (Kelvin)      0.03991     0.02981     0.02384
 Rotational constants (GHZ):           0.83156     0.62112     0.49666
    1 imaginary frequencies ignored.
 Zero-point vibrational energy     353806.8 (Joules/Mol)
                                   84.56184 (Kcal/Mol)
 Warning -- explicit consideration of  18 degrees of freedom as
           vibrations may cause significant error
 Vibrational temperatures:     75.91   101.53   124.29   151.22   180.72
          (Kelvin)            220.67   234.35   263.39   286.70   322.48
                              358.85   401.24   425.64   462.20   486.27
                              578.95   644.84   749.04   927.62  1077.17
                             1132.13  1147.04  1287.16  1377.92  1437.02
                             1487.48  1562.70  1619.26  1700.47  1740.86
                             1753.51  1871.49  1932.71  2033.64  2103.67
                             2128.66  2133.18  2145.10  2151.49  2160.85
                             2355.08  2490.10  4414.62  4417.58  4523.37
                             4532.69  4558.30  4579.11  5063.82  5192.28

 Zero-point correction=                           0.134758 (Hartree/Particle)
 Thermal correction to Energy=                    0.147951
 Thermal correction to Enthalpy=                  0.148895
 Thermal correction to Gibbs Free Energy=         0.094008
 Sum of electronic and zero-point Energies=          -1781.023362
 Sum of electronic and thermal Energies=             -1781.010170
 Sum of electronic and thermal Enthalpies=           -1781.009225
 Sum of electronic and thermal Free Energies=        -1781.064112

                     E (Thermal)             CV                S
                      KCal/Mol        Cal/Mol-Kelvin    Cal/Mol-Kelvin
 Total                   92.840             44.205            115.518
 Electronic               0.000              0.000              0.000
 Translational            0.889              2.981             42.054
 Rotational               0.889              2.981             31.505
 Vibrational             91.063             38.244             41.959
 Vibration     1          0.596              1.977              4.711
 Vibration     2          0.598              1.968              4.138
 Vibration     3          0.601              1.959              3.740
 Vibration     4          0.605              1.945              3.357
 Vibration     5          0.611              1.927              3.012
 Vibration     6          0.619              1.899              2.630
 Vibration     7          0.623              1.888              2.516
 Vibration     8          0.631              1.863              2.297
 Vibration     9          0.637              1.841              2.140
 Vibration    10          0.649              1.804              1.925
 Vibration    11          0.662              1.764              1.735
 Vibration    12          0.679              1.713              1.541
 Vibration    13          0.690              1.681              1.440
 Vibration    14          0.707              1.633              1.304
 Vibration    15          0.718              1.600              1.222
 Vibration    16          0.768              1.465              0.954
 Vibration    17          0.807              1.365              0.801
 Vibration    18          0.876              1.204              0.609

 Optimization completed.
    -- Stationary point found.
 Normal termination of Gaussian 16 at Sun Feb 28 14:39:47 2021.
