 Gaussian 16, Revision A.03,
 Gaussian 16:  ES64L-G16RevA.03 25-Dec-2016

 ----------------------------------------------------------------------
 # wB97XD def2tzvp, opt=(ts, noeigen, calcfc, maxcycles=70, maxstep=8),
  freq=noraman, scrf=(iefpcm, solvent=water)
 ----------------------------------------------------------------------

 ------------------------
 1_iteration/TS-963-1.out
 ------------------------
 Symbolic Z-matrix:
 Charge =  0 Multiplicity = 1

 SCF Done:  E(RwB97XD) =  -1493.42921903     A.U. after   15 cycles
 Optimization completed.
    -- Stationary point found.
 Normal termination of Gaussian 16 at Sun Feb 28 18:49:15 2021.

 ---------------------------------------------------------------------
 #N Geom=AllCheck Guess=TCheck SCRF=Check GenChk RwB97XD/def2TZVP Freq
 ---------------------------------------------------------------------

 Structure from the checkpoint file:  "/beegfs/scratch/user/q/tla25/Gau-111683.chk"
 ------------------------
 1_iteration/TS-963-1.out
 ------------------------
 Charge =  0 Multiplicity = 1

                         Standard orientation:
 ---------------------------------------------------------------------
 Center     Atomic      Atomic             Coordinates (Angstroms)
 Number     Number       Type             X           Y           Z
 ---------------------------------------------------------------------
      1          6           0       -0.023290    0.624599   -0.169131
      2          6           0       -0.256532    2.043709    0.047929
      3          8           0        0.675588    2.831970    0.229839
      4          6           0       -1.032829   -0.323711   -0.273141
      5          6           0       -3.142809   -1.278403    1.545369
      6          1           0       -3.453169   -1.291024    2.590459
      7          1           0       -3.948779   -0.879774    0.935399
      8          1           0       -2.913748   -2.293343    1.226539
      9          7           0       -1.952339   -0.444862    1.373659
     10          1           0       -2.140330    0.533828    1.576329
     11          1           0       -1.198429   -0.743052    1.983709
     12         17           0       -0.547258   -1.999831   -0.469291
     13         17           0       -2.468790   -0.032313   -1.329561
     14          6           0        1.398080    0.182051   -0.042621
     15          6           0        1.986240   -0.006259    1.206169
     16          6           0        3.307591   -0.412328    1.320039
     17          6           0        4.067651   -0.633617    0.179799
     18          6           0        3.497521   -0.442267   -1.070721
     19          6           0        2.175030   -0.035879   -1.177521
     20          1           0        1.400170    0.171441    2.100429
     21          1           0        3.744811   -0.556027    2.300469
     22          1           0        5.099251   -0.951296    0.265789
     23          1           0        4.083871   -0.609037   -1.965971
     24          1           0        1.731480    0.111001   -2.155121
     25          7           0       -1.548602    2.516868    0.152429
     26          1           0       -2.283272    2.064357   -0.365041
     27          1           0       -1.607083    3.522198    0.169109
 ---------------------------------------------------------------------

 SCF Done:  E(RwB97XD) =  -1493.42921903     A.U. after    1 cycles

 The electronic state is 1-A.
 Alpha  occ. eigenvalues -- -101.71588-101.71154 -19.20306 -14.50256 -14.43918
 Alpha  occ. eigenvalues --  -10.45856 -10.38436 -10.32344 -10.29901 -10.28731
 Alpha  occ. eigenvalues --  -10.28696 -10.28642 -10.28496 -10.28409 -10.27557
 Alpha  occ. eigenvalues --   -9.60173  -9.59766  -7.34850  -7.34403  -7.33939
 Alpha  occ. eigenvalues --   -7.33897  -7.33547  -7.33510  -1.12984  -1.06395
 Alpha  occ. eigenvalues --   -1.01027  -0.99238  -0.96287  -0.93598  -0.88589
 Alpha  occ. eigenvalues --   -0.84700  -0.82687  -0.79595  -0.71785  -0.70138
 Alpha  occ. eigenvalues --   -0.69945  -0.65011  -0.64626  -0.62223  -0.60598
 Alpha  occ. eigenvalues --   -0.58539  -0.57118  -0.56520  -0.55295  -0.54076
 Alpha  occ. eigenvalues --   -0.53277  -0.50931  -0.50540  -0.49601  -0.49299
 Alpha  occ. eigenvalues --   -0.48594  -0.48029  -0.46016  -0.43409  -0.42639
 Alpha  occ. eigenvalues --   -0.42369  -0.41873  -0.40136  -0.39979  -0.36021
 Alpha  occ. eigenvalues --   -0.34248  -0.33342  -0.32609  -0.28375
 Alpha virt. eigenvalues --    0.03269   0.04885   0.05702   0.06811   0.08804
 Alpha virt. eigenvalues --    0.10117   0.13174   0.13987   0.14511   0.16101
 Alpha virt. eigenvalues --    0.16370   0.17314   0.17954   0.18078   0.19055

 Mulliken charges:
               1
     1  C   -0.235750
     2  C    0.298553
     3  O   -0.515743
     4  C    0.048145
     5  C   -0.276802
     6  H    0.161692
     7  H    0.157118
     8  H    0.152797
     9  N   -0.282729
    10  H    0.280193
    11  H    0.290480
    12  Cl  -0.042014
    13  Cl  -0.096054
    14  C    0.248854
    15  C   -0.231490
    16  C   -0.160258
    17  C   -0.134327
    18  C   -0.153001
    19  C   -0.229860
    20  H    0.141360
    21  H    0.138832
    22  H    0.142566
    23  H    0.138868
    24  H    0.135855
    25  N   -0.495819
    26  H    0.257323
    27  H    0.261213
 Sum of Mulliken charges =  -0.00000

 Dipole moment (field-independent basis, Debye):
    X=             -7.4635    Y=             -4.5631    Z=              4.0115  Tot=              9.6238
 Quadrupole moment (field-independent basis, Debye-Ang):
   XX=            -85.5956   YY=           -112.6358   ZZ=            -91.3925
   XY=            -10.3569   XZ=             -9.1010   YZ=             -5.7284

  Exact polarizability: 270.333   3.156 211.714  -3.896  -3.685 211.249
 Approx polarizability: 210.415  -0.707 175.502  -0.497  -1.434 184.299

 ******    1 imaginary frequencies (negative Signs) ******

                      1                      2                      3
                      A                      A                      A
 Frequencies --   -372.9334                36.2327                48.4936
 Red. masses --      6.5650                 4.2515                 5.4738
 Frc consts  --      0.5380                 0.0033                 0.0076
 IR Inten    --    708.3759                 2.0041                 6.7618

                      4                      5                      6
                      A                      A                      A
 Frequencies --     74.0765                86.1250                90.1732
 Red. masses --      5.4224                 3.5374                 3.9534
 Frc consts  --      0.0175                 0.0155                 0.0189
 IR Inten    --      3.4562                12.0053                 6.7886

                      7                      8                      9
                      A                      A                      A
 Frequencies --    117.8533               160.3198               179.5709
 Red. masses --      2.4998                 2.7745                 2.3178
 Frc consts  --      0.0205                 0.0420                 0.0440
 IR Inten    --      3.4922                 3.5559                 5.3406

                     10                     11                     12
                      A                      A                      A
 Frequencies --    197.7519               225.9525               256.3616
 Red. masses --      5.5424                 4.4764                 6.6083
 Frc consts  --      0.1277                 0.1347                 0.2559
 IR Inten    --      6.8971                 3.4444                 2.2010

                     13                     14                     15
                      A                      A                      A
 Frequencies --    280.5156               292.3497               324.3257
 Red. masses --      4.6454                 4.4878                 5.8615
 Frc consts  --      0.2154                 0.2260                 0.3633
 IR Inten    --      6.1751                19.8056                38.2990

                     16                     17                     18
                      A                      A                      A
 Frequencies --    349.5617               397.1078               424.1873
 Red. masses --      6.0937                 5.0836                 2.8624
 Frc consts  --      0.4387                 0.4723                 0.3035
 IR Inten    --     15.8519                 3.0651                 0.0248

                     19                     20                     21
                      A                      A                      A
 Frequencies --    430.2957               485.9283               523.7367
 Red. masses --      5.7083                 1.3585                 3.5527
 Frc consts  --      0.6227                 0.1890                 0.5742
 IR Inten    --     16.9452                25.9969                 7.4209

                     22                     23                     24
                      A                      A                      A
 Frequencies --    536.2266               576.3321               613.8191
 Red. masses --      1.6599                 2.2654                 4.0246
 Frc consts  --      0.2812                 0.4434                 0.8934
 IR Inten    --    519.1649                52.4047                71.3376

                     25                     26                     27
                      A                      A                      A
 Frequencies --    639.8546               663.6398               699.0873
 Red. masses --      6.0665                 3.6457                 1.9550
 Frc consts  --      1.4634                 0.9460                 0.5629
 IR Inten    --     10.2531               123.4224                 2.9549

                     28                     29                     30
                      A                      A                      A
 Frequencies --    726.6843               775.4688               799.9257
 Red. masses --      1.5463                 2.4935                 9.3246
 Frc consts  --      0.4811                 0.8835                 3.5154
 IR Inten    --     94.8694                90.6271                92.3473

                     31                     32                     33
                      A                      A                      A
 Frequencies --    815.9608               862.9516               877.4221
 Red. masses --      2.8973                 4.0254                 1.2492
 Frc consts  --      1.1365                 1.7662                 0.5667
 IR Inten    --    135.7466                83.6765                 0.3972

                     34                     35                     36
                      A                      A                      A
 Frequencies --    954.9163              1010.5034              1014.3696
 Red. masses --      1.4987                 1.3809                 4.7280
 Frc consts  --      0.8052                 0.8308                 2.8663
 IR Inten    --      2.4852                 0.1685                11.4378

                     37                     38                     39
                      A                      A                      A
 Frequencies --   1027.2685              1027.3841              1046.8620
 Red. masses --      1.3209                 6.1525                 1.4083
 Frc consts  --      0.8213                 3.8262                 0.9093
 IR Inten    --      0.7715                 1.5120                50.9188

                     40                     41                     42
                      A                      A                      A
 Frequencies --   1054.9239              1064.4378              1094.0260
 Red. masses --      1.7607                 2.0032                 1.6651
 Frc consts  --      1.1544                 1.3373                 1.1742
 IR Inten    --      5.4448                15.2364               243.5311

                     43                     44                     45
                      A                      A                      A
 Frequencies --   1107.4983              1120.6956              1181.5086
 Red. masses --      1.5451                 1.7297                 1.1360
 Frc consts  --      1.1166                 1.2800                 0.9343
 IR Inten    --     19.3235                77.9040                 0.0664

                     46                     47                     48
                      A                      A                      A
 Frequencies --   1205.5694              1254.1720              1261.6647
 Red. masses --      1.1211                 1.5847                 2.7474
 Frc consts  --      0.9600                 1.4686                 2.5767
 IR Inten    --      0.0877                48.3668               152.9195

                     49                     50                     51
                      A                      A                      A
 Frequencies --   1307.4548              1347.6147              1356.2912
 Red. masses --      4.4745                 1.4924                 1.4589
 Frc consts  --      4.5066                 1.5969                 1.5812
 IR Inten    --      0.4717               147.8882                16.9431

                     52                     53                     54
                      A                      A                      A
 Frequencies --   1371.0586              1435.3100              1457.1873
 Red. masses --      3.1375                 5.7839                 1.2038
 Frc consts  --      3.4750                 7.0205                 1.5060
 IR Inten    --    847.6206               432.7957                17.1959

                     55                     56                     57
                      A                      A                      A
 Frequencies --   1487.1864              1492.3991              1496.9977
 Red. masses --      2.1971                 1.0414                 1.0308
 Frc consts  --      2.8631                 1.3666                 1.3611
 IR Inten    --      7.2256                20.1495                15.3629

                     58                     59                     60
                      A                      A                      A
 Frequencies --   1544.9957              1622.7145              1641.1471
 Red. masses --      2.4920                 1.4693                 1.1364
 Frc consts  --      3.5047                 2.2795                 1.8033
 IR Inten    --     58.4386               386.0480               168.6798

                     61                     62                     63
                      A                      A                      A
 Frequencies --   1646.1146              1663.2616              1673.9814
 Red. masses --      5.5482                 3.3027                 5.7054
 Frc consts  --      8.8577                 5.3832                 9.4198
 IR Inten    --      4.6641               468.7707               189.4881

                     64                     65                     66
                      A                      A                      A
 Frequencies --   3076.4097              3156.7862              3186.0940
 Red. masses --      1.0350                 1.1033                 1.0869
 Frc consts  --      5.7711                 6.4777                 6.5005
 IR Inten    --     33.6076                 7.8724                11.0395

                     67                     68                     69
                      A                      A                      A
 Frequencies --   3186.4442              3190.1798              3200.1189
 Red. masses --      1.1057                 1.0876                 1.0913
 Frc consts  --      6.6147                 6.5214                 6.5843
 IR Inten    --      7.2545                 2.1834                13.8381

                     70                     71                     72
                      A                      A                      A
 Frequencies --   3207.3103              3218.7624              3494.6756
 Red. masses --      1.0951                 1.0988                 1.0535
 Frc consts  --      6.6373                 6.7072                 7.5807
 IR Inten    --     50.2803                20.5192                38.5150

                     73                     74                     75
                      A                      A                      A
 Frequencies --   3581.2394              3593.0755              3702.0575
 Red. masses --      1.0945                 1.0472                 1.1007
 Frc consts  --      8.2705                 7.9653                 8.8877
 IR Inten    --     72.7182                37.1833               112.6623

 - Thermochemistry -
 -------------------
 Temperature   298.150 Kelvin.  Pressure   1.00000 Atm.
 Atom     1 has atomic number  6 and mass  12.00000

 Molecular mass:   246.03267 amu.
 Principal axes and moments of inertia in atomic units:
                           1         2         3
     Eigenvalues --  2504.469414986.153055854.36588
           X            0.99964  -0.00994  -0.02476
           Y            0.00905   0.99932  -0.03568
           Z            0.02510   0.03544   0.99906
 This molecule is an asymmetric top.
 Rotational symmetry number  1.
 Warning -- assumption of classical behavior for rotation
           may cause significant error
 Rotational temperatures (Kelvin)      0.03458     0.01737     0.01479
 Rotational constants (GHZ):           0.72061     0.36195     0.30827
    1 imaginary frequencies ignored.
 Zero-point vibrational energy     552261.8 (Joules/Mol)
                                  131.99374 (Kcal/Mol)
 Warning -- explicit consideration of  23 degrees of freedom as
           vibrations may cause significant error
 Vibrational temperatures:     52.13    69.77   106.58   123.91   129.74
          (Kelvin)            169.56   230.66   258.36   284.52   325.10
                              368.85   403.60   420.63   466.63   502.94
                              571.35   610.31   619.10   699.14   753.54
                              771.51   829.21   883.15   920.61   954.83
                             1005.83  1045.54  1115.73  1150.91  1173.99
                             1241.59  1262.41  1373.91  1453.89  1459.45
                             1478.01  1478.18  1506.20  1517.80  1531.49
                             1574.06  1593.44  1612.43  1699.93  1734.55
                             1804.47  1815.25  1881.14  1938.92  1951.40
                             1972.65  2065.09  2096.57  2139.73  2147.23
                             2153.85  2222.90  2334.72  2361.24  2368.39
                             2393.06  2408.49  4426.27  4541.91  4584.08
                             4584.58  4589.96  4604.26  4614.60  4631.08
                             5028.06  5152.60  5169.63  5326.43

 Zero-point correction=                           0.210345 (Hartree/Particle)
 Thermal correction to Energy=                    0.225464
 Thermal correction to Enthalpy=                  0.226409
 Thermal correction to Gibbs Free Energy=         0.167006
 Sum of electronic and zero-point Energies=          -1493.218874
 Sum of electronic and thermal Energies=             -1493.203755
 Sum of electronic and thermal Enthalpies=           -1493.202810
 Sum of electronic and thermal Free Energies=        -1493.262213

                     E (Thermal)             CV                S
                      KCal/Mol        Cal/Mol-Kelvin    Cal/Mol-Kelvin
 Total                  141.481             55.638            125.024
 Electronic               0.000              0.000              0.000
 Translational            0.889              2.981             42.402
 Rotational               0.889              2.981             32.658
 Vibrational            139.704             49.676             49.964
 Vibration     1          0.594              1.982              5.455
 Vibration     2          0.595              1.978              4.878
 Vibration     3          0.599              1.966              4.042
 Vibration     4          0.601              1.959              3.746
 Vibration     5          0.602              1.956              3.656
 Vibration     6          0.608              1.934              3.135
 Vibration     7          0.622              1.891              2.546
 Vibration     8          0.629              1.867              2.333
 Vibration     9          0.637              1.843              2.154
 Vibration    10          0.650              1.801              1.911
 Vibration    11          0.666              1.752              1.686
 Vibration    12          0.680              1.710              1.531
 Vibration    13          0.688              1.688              1.460
 Vibration    14          0.709              1.627              1.288
 Vibration    15          0.727              1.576              1.168
 Vibration    16          0.764              1.476              0.973
 Vibration    17          0.786              1.418              0.878
 Vibration    18          0.791              1.404              0.858
 Vibration    19          0.842              1.281              0.694
 Vibration    20          0.879              1.197              0.601
 Vibration    21          0.891              1.170              0.573
 Vibration    22          0.933              1.082              0.492
 Vibration    23          0.973              1.003              0.426

 Optimization completed.
    -- Stationary point found.
 Normal termination of Gaussian 16 at Sun Feb 28 19:41:57 2021.
