 Gaussian 16, Revision A.03,
 Gaussian 16:  ES64L-G16RevA.03 25-Dec-2016

 ----------------------------------------------------------------------
 # wB97XD def2tzvp, opt=(ts, noeigen, calcfc, maxcycles=70, maxstep=5),
  freq=noraman, scrf=(iefpcm, solvent=water)
 ----------------------------------------------------------------------

 ------------------------
 2_iteration/TS-994-2.out
 ------------------------
 Symbolic Z-matrix:
 Charge =  0 Multiplicity = 1

 SCF Done:  E(RwB97XD) =  -1705.91775094     A.U. after   15 cycles
 SCF Done:  E(RwB97XD) =  -1705.91775102     A.U. after    7 cycles
 Optimization completed.
    -- Stationary point found.
 Normal termination of Gaussian 16 at Sun Feb 28 17:25:01 2021.

 ---------------------------------------------------------------------
 #N Geom=AllCheck Guess=TCheck SCRF=Check GenChk RwB97XD/def2TZVP Freq
 ---------------------------------------------------------------------

 Structure from the checkpoint file:  "/beegfs/scratch/user/q/tla25/Gau-78364.chk"
 ------------------------
 2_iteration/TS-994-2.out
 ------------------------
 Charge =  0 Multiplicity = 1

                         Standard orientation:
 ---------------------------------------------------------------------
 Center     Atomic      Atomic             Coordinates (Angstroms)
 Number     Number       Type             X           Y           Z
 ---------------------------------------------------------------------
      1          6           0        0.671105   -0.305973   -0.260326
      2          6           0        1.921347    0.383469   -0.021435
      3          8           0        2.992114   -0.212840   -0.097123
      4          6           0       -0.623128    0.219326   -0.255286
      5          6           0       -0.901621   -0.630507    2.397046
      6          1           0       -1.386479   -1.544962    2.062680
      7          1           0        0.179158   -0.751051    2.333801
      8          1           0       -1.179817   -0.426699    3.430189
      9          7           0       -1.297369    0.469427    1.524255
     10          1           0       -2.305350    0.570072    1.463974
     11          1           0       -0.916148    1.351814    1.848077
     12         17           0       -1.921081   -0.803317   -0.857174
     13         17           0       -0.884201    1.873761   -0.817849
     14         17           0        0.842793   -2.043272   -0.422478
     15          6           0        1.957497    1.850120    0.356418
     16          1           0        1.158995    2.150283    1.031647
     17          1           0        2.917868    2.035146    0.832775
     18          1           0        1.887568    2.471590   -0.536919
 ---------------------------------------------------------------------

 SCF Done:  E(RwB97XD) =  -1705.91775102     A.U. after    1 cycles

 The electronic state is 1-A.
 Alpha  occ. eigenvalues -- -101.71954-101.71928-101.69119 -19.21830 -14.50421
 Alpha  occ. eigenvalues --  -10.46730 -10.37297 -10.32882 -10.32452 -10.28100
 Alpha  occ. eigenvalues --   -9.60553  -9.60513  -9.57645  -7.35239  -7.35205
 Alpha  occ. eigenvalues --   -7.34304  -7.34275  -7.34272  -7.34224  -7.32306
 Alpha  occ. eigenvalues --   -7.31419  -7.31402  -1.13082  -1.06859  -1.01957
 Alpha  occ. eigenvalues --   -0.95772  -0.94172  -0.85622  -0.81192  -0.79949
 Alpha  occ. eigenvalues --   -0.71495  -0.64944  -0.62129  -0.59452  -0.57740
 Alpha  occ. eigenvalues --   -0.56995  -0.56173  -0.52741  -0.51903  -0.50047
 Alpha  occ. eigenvalues --   -0.49165  -0.48837  -0.47343  -0.45508  -0.43638
 Alpha  occ. eigenvalues --   -0.42609  -0.41750  -0.40767  -0.39921  -0.38123
 Alpha  occ. eigenvalues --   -0.33515  -0.28957
 Alpha virt. eigenvalues --    0.02042   0.05363   0.05984   0.09831   0.12997
 Alpha virt. eigenvalues --    0.14079   0.14706   0.15621   0.16475   0.18637
 Alpha virt. eigenvalues --    0.18997   0.19860   0.21291   0.22368   0.22992

 Mulliken charges:
               1
     1  C   -0.159941
     2  C    0.209268
     3  O   -0.468315
     4  C    0.130194
     5  C   -0.296732
     6  H    0.163454
     7  H    0.163746
     8  H    0.168826
     9  N   -0.315638
    10  H    0.299481
    11  H    0.288576
    12  Cl  -0.036521
    13  Cl  -0.038095
    14  Cl  -0.146608
    15  C   -0.367948
    16  H    0.115828
    17  H    0.134538
    18  H    0.155888
 Sum of Mulliken charges =  -0.00000

 Dipole moment (field-independent basis, Debye):
    X=             -8.0903    Y=              4.5330    Z=              6.2376  Tot=             11.1762
 Quadrupole moment (field-independent basis, Debye-Ang):
   XX=            -92.1951   YY=            -78.4663   ZZ=            -70.0495
   XY=              5.0686   XZ=             -5.1707   YZ=              1.1432

  Exact polarizability: 188.001  -4.355 157.635  -7.310   2.775 129.532
 Approx polarizability: 152.066  -5.555 135.988  -4.330   2.658 113.201

 ******    1 imaginary frequencies (negative Signs) ******

                      1                      2                      3
                      A                      A                      A
 Frequencies --   -359.4948                52.8428                71.7271
 Red. masses --      5.9505                 2.8800                 5.2660
 Frc consts  --      0.4531                 0.0047                 0.0160
 IR Inten    --    915.3550                 0.6132                 1.7077

                      4                      5                      6
                      A                      A                      A
 Frequencies --     78.5914               135.7810               170.1002
 Red. masses --      5.1247                 4.2526                 1.3637
 Frc consts  --      0.0186                 0.0462                 0.0232
 IR Inten    --      9.6741                 4.0178                 0.6653

                      7                      8                      9
                      A                      A                      A
 Frequencies --    200.9829               227.0620               242.8527
 Red. masses --      7.6879                 2.4480                 8.9994
 Frc consts  --      0.1830                 0.0744                 0.3127
 IR Inten    --      4.4380                 0.3712                 3.5916

                     10                     11                     12
                      A                      A                      A
 Frequencies --    267.1722               274.4293               286.1198
 Red. masses --     10.3789                 1.1486                 4.6418
 Frc consts  --      0.4365                 0.0510                 0.2239
 IR Inten    --     13.2770                 0.9137                 3.7916

                     13                     14                     15
                      A                      A                      A
 Frequencies --    301.7017               337.5387               406.2155
 Red. masses --      3.7550                 7.5357                 8.2772
 Frc consts  --      0.2014                 0.5058                 0.8047
 IR Inten    --      7.4866                28.1161                 5.5709

                     16                     17                     18
                      A                      A                      A
 Frequencies --    438.2522               521.2843               599.4516
 Red. masses --      6.9524                 6.4130                 3.7866
 Frc consts  --      0.7867                 1.0267                 0.8017
 IR Inten    --      0.2627               128.3878                43.5458

                     19                     20                     21
                      A                      A                      A
 Frequencies --    638.7393               673.0429               795.3946
 Red. masses --      2.9857                 1.5145                 9.4225
 Frc consts  --      0.7177                 0.4042                 3.5122
 IR Inten    --     43.4017                16.8411               242.6343

                     22                     23                     24
                      A                      A                      A
 Frequencies --    854.1904               933.8404              1007.7538
 Red. masses --      4.4174                 4.1187                 1.0947
 Frc consts  --      1.8990                 2.1162                 0.6550
 IR Inten    --    158.2612                22.8832                 5.8248

                     25                     26                     27
                      A                      A                      A
 Frequencies --   1030.3448              1045.8361              1056.2851
 Red. masses --      1.5627                 1.7338                 1.3543
 Frc consts  --      0.9775                 1.1173                 0.8903
 IR Inten    --    111.1717                 6.7783                89.0660

                     28                     29                     30
                      A                      A                      A
 Frequencies --   1080.4543              1234.7287              1303.0088
 Red. masses --      4.5752                 1.3955                 4.5783
 Frc consts  --      3.1468                 1.2535                 4.5798
 IR Inten    --     67.5801                27.7601               366.0583

                     31                     32                     33
                      A                      A                      A
 Frequencies --   1339.7251              1369.6516              1398.2557
 Red. masses --      1.3402                 7.9406                 1.3237
 Frc consts  --      1.4173                 8.7766                 1.5248
 IR Inten    --      8.7911              1193.7767                82.4530

                     34                     35                     36
                      A                      A                      A
 Frequencies --   1462.4984              1470.0265              1486.0723
 Red. masses --      1.1966                 1.0586                 1.0637
 Frc consts  --      1.5080                 1.3478                 1.3841
 IR Inten    --     13.4337                16.0600                 8.2551

                     37                     38                     39
                      A                      A                      A
 Frequencies --   1489.7317              1502.1163              1637.4822
 Red. masses --      1.0419                 1.0303                 1.0906
 Frc consts  --      1.3623                 1.3697                 1.7229
 IR Inten    --     24.9172                18.5994                81.9290

                     40                     41                     42
                      A                      A                      A
 Frequencies --   1671.8096              3075.6718              3078.7845
 Red. masses --     10.1947                 1.0327                 1.0362
 Frc consts  --     16.7879                 5.7557                 5.7869
 IR Inten    --    617.6693                18.7490                 7.7902

                     43                     44                     45
                      A                      A                      A
 Frequencies --   3156.3110              3156.5741              3172.7351
 Red. masses --      1.1002                 1.1052                 1.1039
 Frc consts  --      6.4578                 6.4880                 6.5472
 IR Inten    --     14.1940                 4.1295                25.6551

                     46                     47                     48
                      A                      A                      A
 Frequencies --   3175.2442              3514.9887              3598.8327
 Red. masses --      1.1063                 1.0507                 1.0967
 Frc consts  --      6.5716                 7.6485                 8.3686
 IR Inten    --      7.9176                76.8978                64.2188

 - Thermochemistry -
 -------------------
 Temperature   298.150 Kelvin.  Pressure   1.00000 Atm.
 Atom     1 has atomic number  6 and mass  12.00000

 Molecular mass:   202.96715 amu.
 Principal axes and moments of inertia in atomic units:
                           1         2         3
     Eigenvalues --  1966.525892397.529603021.52042
           X            0.99170   0.12332  -0.03649
           Y           -0.12352   0.99234  -0.00319
           Z            0.03582   0.00767   0.99933
 This molecule is an asymmetric top.
 Rotational symmetry number  1.
 Warning -- assumption of classical behavior for rotation
           may cause significant error
 Rotational temperatures (Kelvin)      0.04404     0.03613     0.02867
 Rotational constants (GHZ):           0.91773     0.75275     0.59730
    1 imaginary frequencies ignored.
 Zero-point vibrational energy     341068.7 (Joules/Mol)
                                   81.51738 (Kcal/Mol)
 Warning -- explicit consideration of  17 degrees of freedom as
           vibrations may cause significant error
 Vibrational temperatures:     76.03   103.20   113.08   195.36   244.74
          (Kelvin)            289.17   326.69   349.41   384.40   394.84
                              411.66   434.08   485.64   584.45   630.55
                              750.01   862.48   919.00   968.36  1144.40
                             1228.99  1343.59  1449.93  1482.44  1504.72
                             1519.76  1554.53  1776.50  1874.74  1927.57
                             1970.62  2011.78  2104.21  2115.04  2138.13
                             2143.39  2161.21  2355.97  2405.36  4425.21
                             4429.68  4541.23  4541.61  4564.86  4568.47
                             5057.28  5177.92

 Zero-point correction=                           0.129906 (Hartree/Particle)
 Thermal correction to Energy=                    0.141774
 Thermal correction to Enthalpy=                  0.142719
 Thermal correction to Gibbs Free Energy=         0.091087
 Sum of electronic and zero-point Energies=          -1705.787845
 Sum of electronic and thermal Energies=             -1705.775977
 Sum of electronic and thermal Enthalpies=           -1705.775032
 Sum of electronic and thermal Free Energies=        -1705.826664

                     E (Thermal)             CV                S
                      KCal/Mol        Cal/Mol-Kelvin    Cal/Mol-Kelvin
 Total                   88.965             40.925            108.667
 Electronic               0.000              0.000              0.000
 Translational            0.889              2.981             41.828
 Rotational               0.889              2.981             31.033
 Vibrational             87.187             34.963             35.806
 Vibration     1          0.596              1.976              4.708
 Vibration     2          0.598              1.967              4.105
 Vibration     3          0.600              1.964              3.926
 Vibration     4          0.614              1.918              2.862
 Vibration     5          0.625              1.879              2.434
 Vibration     6          0.638              1.838              2.124
 Vibration     7          0.651              1.800              1.902
 Vibration     8          0.659              1.775              1.782
 Vibration     9          0.672              1.733              1.614
 Vibration    10          0.677              1.721              1.568
 Vibration    11          0.684              1.699              1.497
 Vibration    12          0.694              1.670              1.407
 Vibration    13          0.718              1.601              1.224
 Vibration    14          0.771              1.457              0.940
 Vibration    15          0.798              1.387              0.832
 Vibration    16          0.876              1.203              0.607
 Vibration    17          0.958              1.033              0.451

 Optimization completed.
    -- Stationary point found.
 Normal termination of Gaussian 16 at Sun Feb 28 17:37:07 2021.
