 Gaussian 16, Revision A.03,
 Gaussian 16:  ES64L-G16RevA.03 25-Dec-2016

 ----------------------------------------------------------------------
 # wB97XD def2tzvp, opt=(ts, noeigen, calcfc, maxcycles=70, maxstep=8),
  freq=noraman, scrf=(iefpcm, solvent=water)
 ----------------------------------------------------------------------

 ------------------------
 1_iteration/TS-999-1.out
 ------------------------
 Symbolic Z-matrix:
 Charge =  0 Multiplicity = 1

 SCF Done:  E(RwB97XD) =  -1953.03255637     A.U. after   15 cycles
 SCF Done:  E(RwB97XD) =  -1953.03260378     A.U. after   10 cycles
 SCF Done:  E(RwB97XD) =  -1953.03260418     A.U. after    8 cycles
 Optimization completed.
    -- Stationary point found.
 Normal termination of Gaussian 16 at Sun Feb 28 18:34:41 2021.

 ---------------------------------------------------------------------
 #N Geom=AllCheck Guess=TCheck SCRF=Check GenChk RwB97XD/def2TZVP Freq
 ---------------------------------------------------------------------

 Structure from the checkpoint file:  "/beegfs/scratch/user/q/tla25/Gau-30765.chk"
 ------------------------
 1_iteration/TS-999-1.out
 ------------------------
 Charge =  0 Multiplicity = 1

                         Standard orientation:
 ---------------------------------------------------------------------
 Center     Atomic      Atomic             Coordinates (Angstroms)
 Number     Number       Type             X           Y           Z
 ---------------------------------------------------------------------
      1          6           0        0.920934    0.680071   -0.145257
      2          6           0       -0.307725   -0.103858   -0.106229
      3          8           0       -0.279000   -1.330428    0.006475
      4          6           0        2.153549    0.056637   -0.271735
      5          6           0        3.628662   -1.855610    1.495380
      6          1           0        4.512885   -1.221744    1.458761
      7          1           0        3.609181   -2.385432    2.449163
      8          1           0        3.675139   -2.581913    0.687110
      9          7           0        2.438337   -1.029129    1.327684
     10          1           0        1.580823   -1.574058    1.280089
     11          1           0        2.343344   -0.344675    2.069247
     12         17           0        3.589132    1.043890   -0.242923
     13         17           0        2.328019   -1.244720   -1.457950
     14         17           0        0.847973    2.359872    0.340320
     15          7           0       -1.474284    0.603940   -0.188796
     16          6           0       -2.794619    0.151178   -0.072295
     17          6           0       -3.160620   -1.194525   -0.053567
     18          6           0       -4.500782   -1.539656    0.057709
     19          6           0       -5.488452   -0.571695    0.144026
     20          6           0       -5.122361    0.767696    0.118247
     21          6           0       -3.791438    1.127143    0.013396
     22          1           0       -1.372324    1.601911   -0.272596
     23          1           0       -2.402217   -1.956047   -0.126342
     24          1           0       -4.769831   -2.588682    0.072305
     25          1           0       -6.529639   -0.854325    0.228110
     26          1           0       -5.877232    1.541176    0.182905
     27          1           0       -3.516490    2.175539   -0.001400
 ---------------------------------------------------------------------

 SCF Done:  E(RwB97XD) =  -1953.03260418     A.U. after    1 cycles

 The electronic state is 1-A.
 Alpha  occ. eigenvalues -- -101.71986-101.71048-101.70428 -19.22115 -14.48631
 Alpha  occ. eigenvalues --  -14.47233 -10.45886 -10.40330 -10.34143 -10.32957
 Alpha  occ. eigenvalues --  -10.31864 -10.29222 -10.29107 -10.29070 -10.28509
 Alpha  occ. eigenvalues --  -10.28487  -9.60564  -9.59627  -9.58946  -7.35250
 Alpha  occ. eigenvalues --   -7.34326  -7.34316  -7.34283  -7.33600  -7.33382
 Alpha  occ. eigenvalues --   -7.33350  -7.32737  -7.32693  -1.15203  -1.05530
 Alpha  occ. eigenvalues --   -1.05036  -1.01402  -0.96913  -0.95344  -0.93881
 Alpha  occ. eigenvalues --   -0.85790  -0.85337  -0.83327  -0.78936  -0.75058
 Alpha  occ. eigenvalues --   -0.71894  -0.68697  -0.65533  -0.63663  -0.63079
 Alpha  occ. eigenvalues --   -0.60442  -0.58477  -0.57432  -0.56503  -0.55641
 Alpha  occ. eigenvalues --   -0.54599  -0.53082  -0.52687  -0.52290  -0.50896
 Alpha  occ. eigenvalues --   -0.49854  -0.48735  -0.48227  -0.47120  -0.45010
 Alpha  occ. eigenvalues --   -0.44030  -0.43474  -0.43114  -0.42596  -0.41312
 Alpha  occ. eigenvalues --   -0.39911  -0.39260  -0.39118  -0.35049  -0.33912
 Alpha  occ. eigenvalues --   -0.30950  -0.27970
 Alpha virt. eigenvalues --    0.01708   0.05199   0.05394   0.06662   0.07901
 Alpha virt. eigenvalues --    0.10959   0.12941   0.13513   0.14361   0.15246
 Alpha virt. eigenvalues --    0.16366   0.17126   0.17653   0.18098   0.18699

 Mulliken charges:
               1
     1  C   -0.256417
     2  C    0.456581
     3  O   -0.537959
     4  C    0.152538
     5  C   -0.270807
     6  H    0.148370
     7  H    0.154559
     8  H    0.149733
     9  N   -0.348257
    10  H    0.283280
    11  H    0.285430
    12  Cl  -0.030579
    13  Cl  -0.060336
    14  Cl  -0.136588
    15  N   -0.275359
    16  C    0.299965
    17  C   -0.290319
    18  C   -0.106557
    19  C   -0.192180
    20  C   -0.098480
    21  C   -0.305802
    22  H    0.243082
    23  H    0.162855
    24  H    0.142822
    25  H    0.142008
    26  H    0.144864
    27  H    0.143555
 Sum of Mulliken charges =  -0.00000

 Dipole moment (field-independent basis, Debye):
    X=              2.7175    Y=             -0.2933    Z=              4.1480  Tot=              4.9676
 Quadrupole moment (field-independent basis, Debye-Ang):
   XX=            -97.2110   YY=           -109.1294   ZZ=           -111.8947
   XY=            -11.2337   XZ=             10.8617   YZ=             -4.5850

  Exact polarizability: 344.520 -13.805 259.473   6.731  -0.816 168.903
 Approx polarizability: 243.779  -5.575 226.192   2.623   1.415 152.531

 ******    1 imaginary frequencies (negative Signs) ******

                      1                      2                      3
                      A                      A                      A
 Frequencies --   -360.0016                30.1393                35.4935
 Red. masses --      6.7875                 4.5088                 6.0298
 Frc consts  --      0.5183                 0.0024                 0.0045
 IR Inten    --   1016.7403                 1.6110                 1.5079

                      4                      5                      6
                      A                      A                      A
 Frequencies --     52.8766                76.5086                84.6212
 Red. masses --      4.5677                 4.5819                 7.4907
 Frc consts  --      0.0075                 0.0158                 0.0316
 IR Inten    --      5.9682                 2.8431                 0.8863

                      7                      8                      9
                      A                      A                      A
 Frequencies --     97.3133               126.4016               166.8984
 Red. masses --      2.5907                 4.3053                 1.5960
 Frc consts  --      0.0145                 0.0405                 0.0262
 IR Inten    --      5.8051                17.5380                 2.9380

                     10                     11                     12
                      A                      A                      A
 Frequencies --    182.9910               206.5981               209.1546
 Red. masses --     11.2720                 6.2980                 4.9808
 Frc consts  --      0.2224                 0.1584                 0.1284
 IR Inten    --      7.1608                11.7735                 9.5701

                     13                     14                     15
                      A                      A                      A
 Frequencies --    238.9194               247.1771               260.7017
 Red. masses --     10.3223                 4.0528                 4.5760
 Frc consts  --      0.3472                 0.1459                 0.1832
 IR Inten    --     20.9025                11.5013                 8.5623

                     16                     17                     18
                      A                      A                      A
 Frequencies --    299.3782               322.1806               364.6874
 Red. masses --      6.4038                10.0693                 7.4945
 Frc consts  --      0.3382                 0.6158                 0.5873
 IR Inten    --      6.3763                 4.6690                 6.0054

                     19                     20                     21
                      A                      A                      A
 Frequencies --    414.7977               423.5255               432.2374
 Red. masses --     10.1741                 3.0490                 8.6136
 Frc consts  --      1.0314                 0.3222                 0.9482
 IR Inten    --     14.9410                 1.9190                63.7506

                     22                     23                     24
                      A                      A                      A
 Frequencies --    501.7742               530.9180               568.8321
 Red. masses --      8.5050                 2.9593                 7.9060
 Frc consts  --      1.2617                 0.4915                 1.5072
 IR Inten    --    131.2321                63.2692                52.8102

                     25                     26                     27
                      A                      A                      A
 Frequencies --    595.9828               636.2654               673.2724
 Red. masses --      1.1500                 6.4118                 1.4225
 Frc consts  --      0.2407                 1.5294                 0.3799
 IR Inten    --    107.8995                 2.3774                10.4443

                     28                     29                     30
                      A                      A                      A
 Frequencies --    719.8945               723.2445               768.5202
 Red. masses --      1.9577                 6.9994                 9.5202
 Frc consts  --      0.5978                 2.1572                 3.3129
 IR Inten    --     74.7606                29.2479                55.2904

                     31                     32                     33
                      A                      A                      A
 Frequencies --    785.8355               817.2333               863.8064
 Red. masses --      1.8337                 5.6165                 1.2621
 Frc consts  --      0.6672                 2.2101                 0.5549
 IR Inten    --    109.8185               224.8922                 0.3794

                     34                     35                     36
                      A                      A                      A
 Frequencies --    878.9870               913.5792               938.4122
 Red. masses --      5.6302                 6.0801                 1.4688
 Frc consts  --      2.5630                 2.9899                 0.7621
 IR Inten    --     14.4873                44.0278                14.0832

                     37                     38                     39
                      A                      A                      A
 Frequencies --   1004.1916              1021.5372              1021.8258
 Red. masses --      1.3487                 3.2972                 1.5454
 Frc consts  --      0.8013                 2.0272                 0.9507
 IR Inten    --      0.0396                 2.7886                 1.5671

                     40                     41                     42
                      A                      A                      A
 Frequencies --   1027.0662              1042.2636              1062.8087
 Red. masses --      1.1465                 1.2408                 2.2814
 Frc consts  --      0.7126                 0.7942                 1.5183
 IR Inten    --     16.5145                74.7892                 5.9416

                     43                     44                     45
                      A                      A                      A
 Frequencies --   1080.7589              1093.3860              1128.1589
 Red. masses --      3.7556                 3.9387                 1.7134
 Frc consts  --      2.5846                 2.7743                 1.2848
 IR Inten    --    278.0418                35.9422                11.6635

                     46                     47                     48
                      A                      A                      A
 Frequencies --   1183.0902              1211.4937              1213.2005
 Red. masses --      1.1223                 1.1356                 1.4028
 Frc consts  --      0.9255                 0.9820                 1.2165
 IR Inten    --      3.6033                24.4173                32.6309

                     49                     50                     51
                      A                      A                      A
 Frequencies --   1269.9956              1276.3980              1343.8341
 Red. masses --      4.2328                 2.8374                 1.6371
 Frc consts  --      4.0224                 2.7236                 1.7418
 IR Inten    --    326.2170               448.4244               256.4564

                     52                     53                     54
                      A                      A                      A
 Frequencies --   1346.1086              1364.5282              1409.2569
 Red. masses --      2.8839                 1.4765                 5.6792
 Frc consts  --      3.0788                 1.6197                 6.6454
 IR Inten    --    729.5036                38.2519               693.7011

                     55                     56                     57
                      A                      A                      A
 Frequencies --   1457.2687              1485.6804              1491.8805
 Red. masses --      1.1981                 2.2214                 1.0422
 Frc consts  --      1.4991                 2.8889                 1.3666
 IR Inten    --     13.3579               221.6910                20.5252

                     58                     59                     60
                      A                      A                      A
 Frequencies --   1499.0853              1547.8821              1589.3279
 Red. masses --      1.0313                 2.4052                 2.1242
 Frc consts  --      1.3655                 3.3953                 3.1614
 IR Inten    --     18.7891               177.6212               842.6220

                     61                     62                     63
                      A                      A                      A
 Frequencies --   1650.0946              1663.3851              1673.2154
 Red. masses --      1.0948                 6.3454                 3.9600
 Frc consts  --      1.7563                10.3441                 6.5321
 IR Inten    --     52.1120               212.5085                14.6645

                     64                     65                     66
                      A                      A                      A
 Frequencies --   1688.2968              3067.2149              3145.1049
 Red. masses --      6.0439                 1.0359                 1.1016
 Frc consts  --     10.1500                 5.7419                 6.4201
 IR Inten    --    324.1199                50.0260                12.2462

                     67                     68                     69
                      A                      A                      A
 Frequencies --   3174.5018              3189.9249              3198.6378
 Red. masses --      1.1055                 1.0879                 1.0885
 Frc consts  --      6.5641                 6.5224                 6.5614
 IR Inten    --     10.5647                11.2223                 2.1903

                     70                     71                     72
                      A                      A                      A
 Frequencies --   3208.4835              3223.0167              3271.9745
 Red. masses --      1.0933                 1.0980                 1.0926
 Frc consts  --      6.6310                 6.7203                 6.8920
 IR Inten    --     27.8612                21.6205                 5.7318

                     73                     74                     75
                      A                      A                      A
 Frequencies --   3490.8699              3589.4467              3643.1759
 Red. masses --      1.0544                 1.0939                 1.0762
 Frc consts  --      7.5706                 8.3040                 8.4157
 IR Inten    --     50.3310                70.3063                84.2862

 - Thermochemistry -
 -------------------
 Temperature   298.150 Kelvin.  Pressure   1.00000 Atm.
 Atom     1 has atomic number  6 and mass  12.00000

 Molecular mass:   279.99370 amu.
 Principal axes and moments of inertia in atomic units:
                           1         2         3
     Eigenvalues --  2285.102979407.51279**********
           X            0.99986  -0.01205   0.01148
           Y            0.01255   0.99894  -0.04427
           Z           -0.01094   0.04440   0.99895
 This molecule is an asymmetric top.
 Rotational symmetry number  1.
 Warning -- assumption of classical behavior for rotation
           may cause significant error
 Rotational temperatures (Kelvin)      0.03790     0.00921     0.00814
 Rotational constants (GHZ):           0.78979     0.19184     0.16967
    1 imaginary frequencies ignored.
 Zero-point vibrational energy     527777.6 (Joules/Mol)
                                  126.14188 (Kcal/Mol)
 Warning -- explicit consideration of  24 degrees of freedom as
           vibrations may cause significant error
 Vibrational temperatures:     43.36    51.07    76.08   110.08   121.75
          (Kelvin)            140.01   181.86   240.13   263.28   297.25
                              300.93   343.75   355.63   375.09   430.74
                              463.55   524.70   596.80   609.36   621.89
                              721.94   763.87   818.42   857.49   915.44
                              968.69  1035.77  1040.59  1105.73  1130.64
                             1175.82  1242.82  1264.67  1314.44  1350.17
                             1444.81  1469.76  1470.18  1477.72  1499.58
                             1529.14  1554.97  1573.14  1623.17  1702.20
                             1743.07  1745.52  1827.24  1836.45  1933.48
                             1936.75  1963.25  2027.61  2096.68  2137.56
                             2146.48  2156.85  2227.06  2286.69  2374.12
                             2393.24  2407.38  2429.08  4413.04  4525.10
                             4567.40  4589.59  4602.13  4616.29  4637.20
                             4707.64  5022.58  5164.41  5241.72

 Zero-point correction=                           0.201020 (Hartree/Particle)
 Thermal correction to Energy=                    0.217300
 Thermal correction to Enthalpy=                  0.218244
 Thermal correction to Gibbs Free Energy=         0.154959
 Sum of electronic and zero-point Energies=          -1952.831584
 Sum of electronic and thermal Energies=             -1952.815305
 Sum of electronic and thermal Enthalpies=           -1952.814360
 Sum of electronic and thermal Free Energies=        -1952.877645

                     E (Thermal)             CV                S
                      KCal/Mol        Cal/Mol-Kelvin    Cal/Mol-Kelvin
 Total                  136.358             58.431            133.194
 Electronic               0.000              0.000              0.000
 Translational            0.889              2.981             42.787
 Rotational               0.889              2.981             33.791
 Vibrational            134.580             52.470             56.616
 Vibration     1          0.594              1.984              5.820
 Vibration     2          0.594              1.982              5.496
 Vibration     3          0.596              1.976              4.707
 Vibration     4          0.599              1.965              3.979
 Vibration     5          0.601              1.960              3.781
 Vibration     6          0.603              1.951              3.507
 Vibration     7          0.611              1.927              3.000
 Vibration     8          0.624              1.883              2.470
 Vibration     9          0.630              1.863              2.298
 Vibration    10          0.641              1.830              2.074
 Vibration    11          0.642              1.827              2.051
 Vibration    12          0.657              1.781              1.811
 Vibration    13          0.661              1.767              1.751
 Vibration    14          0.669              1.745              1.657
 Vibration    15          0.692              1.675              1.420
 Vibration    16          0.707              1.631              1.299
 Vibration    17          0.738              1.545              1.102
 Vibration    18          0.778              1.438              0.910
 Vibration    19          0.786              1.419              0.880
 Vibration    20          0.793              1.400              0.851
 Vibration    21          0.857              1.246              0.654
 Vibration    22          0.886              1.182              0.585
 Vibration    23          0.925              1.099              0.506
 Vibration    24          0.954              1.040              0.457

 Optimization completed.
    -- Stationary point found.
 Normal termination of Gaussian 16 at Sun Feb 28 19:28:26 2021.
