 Gaussian 16, Revision A.03,
 Gaussian 16:  ES64L-G16RevA.03 25-Dec-2016

 ----------------------------------------------------------------------
 # wB97XD def2tzvp, opt=(ts, noeigen, calcfc, maxcycles=70, maxstep=8),
  freq=noraman, scrf=(iefpcm, solvent=water)
 ----------------------------------------------------------------------

 ------------------------
 1_iteration/TS-919-1.out
 ------------------------
 Symbolic Z-matrix:
 Charge =  0 Multiplicity = 1

 SCF Done:  E(RwB97XD) =  -1532.75540374     A.U. after   14 cycles
 SCF Done:  E(RwB97XD) =  -1532.75629907     A.U. after   12 cycles
 SCF Done:  E(RwB97XD) =  -1532.75646254     A.U. after   12 cycles
 SCF Done:  E(RwB97XD) =  -1532.75647506     A.U. after   11 cycles
 SCF Done:  E(RwB97XD) =  -1532.75647675     A.U. after    8 cycles
 SCF Done:  E(RwB97XD) =  -1532.75647670     A.U. after    9 cycles
 SCF Done:  E(RwB97XD) =  -1532.75647713     A.U. after    8 cycles
 SCF Done:  E(RwB97XD) =  -1532.75647714     A.U. after    6 cycles
 Optimization completed.
    -- Stationary point found.
 Normal termination of Gaussian 16 at Sun Feb 28 21:20:47 2021.

 ---------------------------------------------------------------------
 #N Geom=AllCheck Guess=TCheck SCRF=Check GenChk RwB97XD/def2TZVP Freq
 ---------------------------------------------------------------------

 Structure from the checkpoint file:  "/beegfs/scratch/user/q/tla25/Gau-95562.chk"
 ------------------------
 1_iteration/TS-919-1.out
 ------------------------
 Charge =  0 Multiplicity = 1

                         Standard orientation:
 ---------------------------------------------------------------------
 Center     Atomic      Atomic             Coordinates (Angstroms)
 Number     Number       Type             X           Y           Z
 ---------------------------------------------------------------------
      1          6           0        1.173053    0.295767   -0.274230
      2          6           0       -0.129650   -0.344096   -0.312478
      3          8           0       -0.282211   -1.539140   -0.570282
      4          6           0        2.388469   -0.377336   -0.369609
      5          6           0        2.192670   -1.103564    2.337944
      6          1           0        2.480310   -0.908686    3.370307
      7          1           0        1.211047   -0.664310    2.152972
      8          1           0        2.139123   -2.177441    2.176553
      9          7           0        3.140389   -0.515528    1.399697
     10          1           0        3.356432    0.443792    1.646144
     11          1           0        4.013447   -1.028758    1.356178
     12         17           0        3.757447    0.557475   -1.061020
     13          6           0        2.478220   -1.814022   -0.803313
     14          1           0        1.838890   -2.441112   -0.190570
     15          1           0        2.138058   -1.901623   -1.834207
     16          1           0        3.510707   -2.153090   -0.744318
     17         17           0        1.251571    2.007125    0.149668
     18          7           0       -1.205925    0.477179   -0.059167
     19          6           0       -2.570038    0.173990   -0.053602
     20          6           0       -3.443319    1.216976    0.274860
     21          6           0       -4.810384    1.014366    0.303946
     22          6           0       -5.342979   -0.233566    0.007056
     23          6           0       -4.480635   -1.268005   -0.318565
     24          6           0       -3.105207   -1.080263   -0.352379
     25          1           0       -0.985524    1.433811    0.160118
     26          1           0       -3.040203    2.195671    0.509078
     27          1           0       -5.463073    1.839246    0.561250
     28          1           0       -6.412909   -0.394243    0.029671
     29          1           0       -4.878098   -2.247991   -0.553344
     30          1           0       -2.446276   -1.893395   -0.606090
 ---------------------------------------------------------------------

 SCF Done:  E(RwB97XD) =  -1532.75647714     A.U. after    1 cycles

 The electronic state is 1-A.
 Alpha  occ. eigenvalues -- -101.69849-101.69760 -19.20726 -14.49135 -14.46330
 Alpha  occ. eigenvalues --  -10.41055 -10.39510 -10.33866 -10.31969 -10.31804
 Alpha  occ. eigenvalues --  -10.29031 -10.28868 -10.28853 -10.28823 -10.28229
 Alpha  occ. eigenvalues --  -10.28153  -9.58455  -9.58305  -7.33085  -7.32921
 Alpha  occ. eigenvalues --   -7.32248  -7.32202  -7.32110  -7.32074  -1.14005
 Alpha  occ. eigenvalues --   -1.05047  -1.04202  -0.99001  -0.95756  -0.94218
 Alpha  occ. eigenvalues --   -0.86582  -0.85151  -0.84928  -0.79671  -0.79253
 Alpha  occ. eigenvalues --   -0.74137  -0.71510  -0.67999  -0.64621  -0.63712
 Alpha  occ. eigenvalues --   -0.62331  -0.59028  -0.58362  -0.57666  -0.56255
 Alpha  occ. eigenvalues --   -0.54802  -0.53674  -0.52438  -0.52198  -0.51586
 Alpha  occ. eigenvalues --   -0.50253  -0.50135  -0.48901  -0.47643  -0.47014
 Alpha  occ. eigenvalues --   -0.46878  -0.45341  -0.44732  -0.42854  -0.42578
 Alpha  occ. eigenvalues --   -0.41548  -0.39698  -0.39341  -0.38746  -0.33893
 Alpha  occ. eigenvalues --   -0.33724  -0.30465  -0.27499
 Alpha virt. eigenvalues --    0.03496   0.05409   0.06095   0.08672   0.10295
 Alpha virt. eigenvalues --    0.12541   0.12922   0.14067   0.14580   0.15281
 Alpha virt. eigenvalues --    0.15362   0.16952   0.17110   0.17979   0.18629

 Mulliken charges:
               1
     1  C   -0.235783
     2  C    0.426368
     3  O   -0.537287
     4  C    0.129540
     5  C   -0.303899
     6  H    0.162876
     7  H    0.157586
     8  H    0.162136
     9  N   -0.328682
    10  H    0.285629
    11  H    0.294004
    12  Cl  -0.117490
    13  C   -0.351400
    14  H    0.151271
    15  H    0.150622
    16  H    0.147196
    17  Cl  -0.170236
    18  N   -0.266808
    19  C    0.303699
    20  C   -0.309656
    21  C   -0.100153
    22  C   -0.197151
    23  C   -0.113210
    24  C   -0.295620
    25  H    0.229606
    26  H    0.140902
    27  H    0.143138
    28  H    0.140352
    29  H    0.140850
    30  H    0.161598
 Sum of Mulliken charges =  -0.00000

 Dipole moment (field-independent basis, Debye):
    X=              5.4747    Y=             -0.5029    Z=              5.7274  Tot=              7.9390
 Quadrupole moment (field-independent basis, Debye-Ang):
   XX=            -88.4603   YY=           -106.2348   ZZ=           -105.1920
   XY=            -13.1388   XZ=             13.2591   YZ=             -0.6523

  Exact polarizability: 342.445  -1.849 240.414   0.072  10.911 178.414
 Approx polarizability: 244.901   1.519 210.746  -0.896  10.855 155.817

 ******    1 imaginary frequencies (negative Signs) ******

                      1                      2                      3
                      A                      A                      A
 Frequencies --   -365.2075                21.4387                29.1768
 Red. masses --      5.6838                 3.8123                 5.9670
 Frc consts  --      0.4467                 0.0010                 0.0030
 IR Inten    --    916.5659                 0.7043                 4.6294

                      4                      5                      6
                      A                      A                      A
 Frequencies --     57.4216                72.6400                79.0424
 Red. masses --      6.1861                 6.5658                 2.4011
 Frc consts  --      0.0120                 0.0204                 0.0088
 IR Inten    --      8.5413                 1.0750                 3.6449

                      7                      8                      9
                      A                      A                      A
 Frequencies --     93.6195               138.5827               177.6485
 Red. masses --      6.5608                 2.0863                 1.3795
 Frc consts  --      0.0339                 0.0236                 0.0256
 IR Inten    --      1.3632                12.6957                 6.0659

                     10                     11                     12
                      A                      A                      A
 Frequencies --    192.8394               214.9059               231.8326
 Red. masses --      6.8020                10.8485                 5.3086
 Frc consts  --      0.1490                 0.2952                 0.1681
 IR Inten    --     15.8391                 2.2377                10.6427

                     13                     14                     15
                      A                      A                      A
 Frequencies --    242.5937               257.6590               275.3495
 Red. masses --      3.9395                 2.9459                 1.3830
 Frc consts  --      0.1366                 0.1152                 0.0618
 IR Inten    --      0.2131                 2.7547                 0.2608

                     16                     17                     18
                      A                      A                      A
 Frequencies --    302.8126               325.1049               355.7923
 Red. masses --      3.5847                 3.0030                 7.3554
 Frc consts  --      0.1937                 0.1870                 0.5486
 IR Inten    --     32.2396                 7.8664                21.9171

                     19                     20                     21
                      A                      A                      A
 Frequencies --    385.7646               424.1815               437.6679
 Red. masses --      4.7489                 2.9837                 7.0852
 Frc consts  --      0.4164                 0.3163                 0.7996
 IR Inten    --     10.4715                 0.0700                 0.4069

                     22                     23                     24
                      A                      A                      A
 Frequencies --    481.8087               508.6777               528.3900
 Red. masses --      4.4642                 6.0262                 2.7809
 Frc consts  --      0.6106                 0.9187                 0.4575
 IR Inten    --     13.8057                80.3679                43.6811

                     25                     26                     27
                      A                      A                      A
 Frequencies --    562.6375               582.1854               635.3702
 Red. masses --      1.1758                 5.4142                 6.4128
 Frc consts  --      0.2193                 1.0812                 1.5253
 IR Inten    --     77.3610               106.9198                 2.8046

                     28                     29                     30
                      A                      A                      A
 Frequencies --    666.7917               712.3176               719.3447
 Red. masses --      1.9365                 2.5811                 1.8833
 Frc consts  --      0.5073                 0.7716                 0.5742
 IR Inten    --     14.7537               146.3844                64.0291

                     31                     32                     33
                      A                      A                      A
 Frequencies --    765.2116               784.3192               846.1482
 Red. masses --      8.2143                 1.8294                 4.9363
 Frc consts  --      2.8339                 0.6630                 2.0823
 IR Inten    --     37.1452                98.6900                29.8317

                     34                     35                     36
                      A                      A                      A
 Frequencies --    861.3055               873.6769               932.5646
 Red. masses --      1.2607                 5.8525                 1.4657
 Frc consts  --      0.5510                 2.6321                 0.7510
 IR Inten    --      0.0818                19.6432                13.1381

                     37                     38                     39
                      A                      A                      A
 Frequencies --   1000.2418              1001.3439              1012.2361
 Red. masses --      1.4289                 1.3484                 2.2900
 Frc consts  --      0.8423                 0.7966                 1.3825
 IR Inten    --     67.0972                 0.0662               107.5358

                     40                     41                     42
                      A                      A                      A
 Frequencies --   1017.3319              1019.8893              1042.7170
 Red. masses --      1.2912                 5.3066                 1.1928
 Frc consts  --      0.7874                 3.2522                 0.7641
 IR Inten    --      0.6019                18.2799                22.5091

                     43                     44                     45
                      A                      A                      A
 Frequencies --   1058.0042              1066.3152              1074.3451
 Red. masses --      2.3350                 1.5585                 1.8302
 Frc consts  --      1.5400                 1.0441                 1.2446
 IR Inten    --     13.2350               111.8218                56.4836

                     46                     47                     48
                      A                      A                      A
 Frequencies --   1084.3486              1119.0995              1141.3606
 Red. masses --      3.8805                 1.5891                 3.1156
 Frc consts  --      2.6883                 1.1726                 2.3914
 IR Inten    --      3.6774                20.6716                17.7286

                     49                     50                     51
                      A                      A                      A
 Frequencies --   1182.4130              1208.3198              1220.8801
 Red. masses --      1.1206                 1.1423                 1.3912
 Frc consts  --      0.9231                 0.9827                 1.2218
 IR Inten    --      3.6783                33.0652                32.9700

                     52                     53                     54
                      A                      A                      A
 Frequencies --   1262.1358              1280.8823              1341.9377
 Red. masses --      2.9784                 4.0842                 1.3528
 Frc consts  --      2.7954                 3.9480                 1.4353
 IR Inten    --    830.5275                29.2228                48.3082

                     55                     56                     57
                      A                      A                      A
 Frequencies --   1345.4059              1360.1980              1415.9751
 Red. masses --      3.5380                 1.6187                 1.5911
 Frc consts  --      3.7732                 1.7645                 1.8796
 IR Inten    --    718.8285                 3.1527               410.8392

                     58                     59                     60
                      A                      A                      A
 Frequencies --   1434.8443              1451.4914              1460.2242
 Red. masses --      1.8799                 1.1203                 1.1895
 Frc consts  --      2.2803                 1.3906                 1.4944
 IR Inten    --    389.9176                71.0539                33.7614

                     61                     62                     63
                      A                      A                      A
 Frequencies --   1481.6606              1489.4771              1495.0327
 Red. masses --      2.1343                 1.1450                 1.0777
 Frc consts  --      2.7606                 1.4966                 1.4193
 IR Inten    --    285.2386                79.4185                79.3313

                     64                     65                     66
                      A                      A                      A
 Frequencies --   1502.9968              1546.5264              1574.9330
 Red. masses --      1.0422                 2.4621                 2.0303
 Frc consts  --      1.3872                 3.4695                 2.9671
 IR Inten    --     20.3603               181.7759               801.5914

                     67                     68                     69
                      A                      A                      A
 Frequencies --   1646.2155              1659.7921              1670.4410
 Red. masses --      1.0895                 6.0321                 4.3396
 Frc consts  --      1.7397                 9.7911                 7.1345
 IR Inten    --     66.4488               146.6591                67.2325

                     70                     71                     72
                      A                      A                      A
 Frequencies --   1685.9618              3067.6854              3085.5290
 Red. masses --      6.5128                 1.0344                 1.0366
 Frc consts  --     10.9072                 5.7353                 5.8146
 IR Inten    --    455.2340                28.8474                14.2091

                     73                     74                     75
                      A                      A                      A
 Frequencies --   3143.0536              3161.6263              3172.8812
 Red. masses --      1.1035                 1.1033                 1.1053
 Frc consts  --      6.4230                 6.4981                 6.5562
 IR Inten    --      8.6779                15.1973                12.7974

                     76                     77                     78
                      A                      A                      A
 Frequencies --   3186.6861              3193.0205              3196.5549
 Red. masses --      1.0882                 1.1018                 1.0882
 Frc consts  --      6.5106                 6.6187                 6.5515
 IR Inten    --     14.1397                 2.7365                 2.8143

                     79                     80                     81
                      A                      A                      A
 Frequencies --   3206.5270              3221.7142              3278.1140
 Red. masses --      1.0931                 1.0980                 1.0920
 Frc consts  --      6.6220                 6.7146                 6.9136
 IR Inten    --     30.6992                23.7004                 6.2277

                     82                     83                     84
                      A                      A                      A
 Frequencies --   3526.5142              3608.5829              3644.6730
 Red. masses --      1.0507                 1.0965                 1.0759
 Frc consts  --      7.6991                 8.4128                 8.4205
 IR Inten    --     65.7994                56.9669               100.8769

 - Thermochemistry -
 -------------------
 Temperature   298.150 Kelvin.  Pressure   1.00000 Atm.
 Atom     1 has atomic number  6 and mass  12.00000

 Molecular mass:   260.04832 amu.
 Principal axes and moments of inertia in atomic units:
                           1         2         3
     Eigenvalues --  1942.304978858.709619480.74921
           X            0.99982  -0.01568   0.01052
           Y            0.01569   0.99988  -0.00020
           Z           -0.01052   0.00036   0.99994
 This molecule is an asymmetric top.
 Rotational symmetry number  1.
 Warning -- assumption of classical behavior for rotation
           may cause significant error
 Rotational temperatures (Kelvin)      0.04459     0.00978     0.00914
 Rotational constants (GHZ):           0.92917     0.20373     0.19036
    1 imaginary frequencies ignored.
 Zero-point vibrational energy     626992.5 (Joules/Mol)
                                  149.85481 (Kcal/Mol)
 Warning -- explicit consideration of  25 degrees of freedom as
           vibrations may cause significant error
 Vibrational temperatures:     30.85    41.98    82.62   104.51   113.72
          (Kelvin)            134.70   199.39   255.60   277.45   309.20
                              333.56   349.04   370.71   396.17   435.68
                              467.75   511.91   555.03   610.30   629.71
                              693.22   731.87   760.24   809.51   837.63
                              914.16   959.36  1024.87  1034.98  1100.97
                             1128.46  1217.42  1239.23  1257.03  1341.75
                             1439.12  1440.71  1456.38  1463.71  1467.39
                             1500.24  1522.23  1534.19  1545.74  1560.14
                             1610.13  1642.16  1701.23  1738.50  1756.57
                             1815.93  1842.90  1930.75  1935.74  1957.02
                             2037.27  2064.42  2088.37  2100.94  2131.78
                             2143.03  2151.02  2162.48  2225.11  2265.98
                             2368.54  2388.07  2403.39  2425.72  4413.72
                             4439.39  4522.15  4548.88  4565.07  4584.93
                             4594.04  4599.13  4613.48  4635.33  4716.47
                             5073.87  5191.95  5243.87

 Zero-point correction=                           0.238809 (Hartree/Particle)
 Thermal correction to Energy=                    0.255330
 Thermal correction to Enthalpy=                  0.256274
 Thermal correction to Gibbs Free Energy=         0.192613
 Sum of electronic and zero-point Energies=          -1532.517668
 Sum of electronic and thermal Energies=             -1532.501147
 Sum of electronic and thermal Enthalpies=           -1532.500203
 Sum of electronic and thermal Free Energies=        -1532.563864

                     E (Thermal)             CV                S
                      KCal/Mol        Cal/Mol-Kelvin    Cal/Mol-Kelvin
 Total                  160.222             60.470            133.987
 Electronic               0.000              0.000              0.000
 Translational            0.889              2.981             42.567
 Rotational               0.889              2.981             33.456
 Vibrational            158.445             54.508             57.965
 Vibration     1          0.593              1.985              6.496
 Vibration     2          0.593              1.984              5.885
 Vibration     3          0.596              1.975              4.544
 Vibration     4          0.599              1.967              4.081
 Vibration     5          0.600              1.963              3.915
 Vibration     6          0.603              1.954              3.583
 Vibration     7          0.614              1.915              2.823
 Vibration     8          0.628              1.870              2.353
 Vibration     9          0.635              1.850              2.200
 Vibration    10          0.645              1.818              2.002
 Vibration    11          0.653              1.792              1.865
 Vibration    12          0.659              1.775              1.784
 Vibration    13          0.667              1.750              1.678
 Vibration    14          0.677              1.719              1.562
 Vibration    15          0.694              1.668              1.401
 Vibration    16          0.709              1.625              1.284
 Vibration    17          0.731              1.563              1.140
 Vibration    18          0.754              1.501              1.016
 Vibration    19          0.786              1.418              0.878
 Vibration    20          0.798              1.388              0.834
 Vibration    21          0.838              1.290              0.705
 Vibration    22          0.864              1.231              0.637
 Vibration    23          0.883              1.187              0.591
 Vibration    24          0.918              1.112              0.519
 Vibration    25          0.939              1.070              0.481

 Optimization completed.
    -- Stationary point found.
 Normal termination of Gaussian 16 at Sun Feb 28 22:20:08 2021.
