 Gaussian 16, Revision A.03,
 Gaussian 16:  ES64L-G16RevA.03 25-Dec-2016

 ----------------------------------------------------------------------
 # wB97XD def2tzvp, opt=(ts, noeigen, calcfc, maxcycles=70, maxstep=8),
  freq=noraman, scrf=(iefpcm, solvent=water)
 ----------------------------------------------------------------------

 ------------------------
 1_iteration/TS-948-1.out
 ------------------------
 Symbolic Z-matrix:
 Charge =  0 Multiplicity = 1

 SCF Done:  E(RwB97XD) =  -6009.16151910     A.U. after   15 cycles
 SCF Done:  E(RwB97XD) =  -6009.16330693     A.U. after   13 cycles
 SCF Done:  E(RwB97XD) =  -6009.16509796     A.U. after   13 cycles
 SCF Done:  E(RwB97XD) =  -6009.16608566     A.U. after   13 cycles
 SCF Done:  E(RwB97XD) =  -6009.16620171     A.U. after   12 cycles
 SCF Done:  E(RwB97XD) =  -6009.16604388     A.U. after   13 cycles
 SCF Done:  E(RwB97XD) =  -6009.16627560     A.U. after   12 cycles
 SCF Done:  E(RwB97XD) =  -6009.16628240     A.U. after   11 cycles
 SCF Done:  E(RwB97XD) =  -6009.16626167     A.U. after   11 cycles
 SCF Done:  E(RwB97XD) =  -6009.16628943     A.U. after   10 cycles
 SCF Done:  E(RwB97XD) =  -6009.16628985     A.U. after    9 cycles
 SCF Done:  E(RwB97XD) =  -6009.16629083     A.U. after    8 cycles
 SCF Done:  E(RwB97XD) =  -6009.16629027     A.U. after    7 cycles
 SCF Done:  E(RwB97XD) =  -6009.16629049     A.U. after    7 cycles
 Optimization completed.
    -- Stationary point found.
 Normal termination of Gaussian 16 at Sun Feb 28 14:53:33 2021.

 ---------------------------------------------------------------------
 #N Geom=AllCheck Guess=TCheck SCRF=Check GenChk RwB97XD/def2TZVP Freq
 ---------------------------------------------------------------------

 Structure from the checkpoint file:  "/beegfs/scratch/user/q/tla25/Gau-51796.chk"
 ------------------------
 1_iteration/TS-948-1.out
 ------------------------
 Charge =  0 Multiplicity = 1

                         Standard orientation:
 ---------------------------------------------------------------------
 Center     Atomic      Atomic             Coordinates (Angstroms)
 Number     Number       Type             X           Y           Z
 ---------------------------------------------------------------------
      1          6           0        0.600641    0.280163   -0.206629
      2          6           0        0.318492    1.705172   -0.164291
      3          8           0        1.063110    2.585879   -0.538834
      4          6           0       -0.339855   -0.711033   -0.003405
      5          6           0        0.147513   -0.578679    2.795181
      6          1           0       -0.176472   -0.344934    3.809432
      7          1           0        0.686964   -1.523718    2.797975
      8          1           0        0.813603    0.211799    2.447444
      9          7           0       -0.979140   -0.667892    1.880355
     10          1           0       -1.570901   -1.471021    2.059089
     11          1           0       -1.544838    0.173065    1.899311
     12         17           0        0.168896   -2.374392   -0.081179
     13         35           0       -2.105852   -0.539877   -0.811902
     14         35           0        2.444308   -0.134663   -0.385082
     15          8           0       -0.875068    1.968027    0.396529
     16          6           0       -1.287515    3.333027    0.409116
     17          1           0       -1.330946    3.730208   -0.604450
     18          1           0       -2.277644    3.335650    0.855954
     19          1           0       -0.602964    3.934592    1.005873
 ---------------------------------------------------------------------

 SCF Done:  E(RwB97XD) =  -6009.16629049     A.U. after    1 cycles

 The electronic state is 1-A.
 Alpha  occ. eigenvalues -- -483.14250-483.13177-101.72113 -62.69092 -62.68001
 Alpha  occ. eigenvalues --  -56.48234 -56.47841 -56.47829 -56.47133 -56.46756
 Alpha  occ. eigenvalues --  -56.46750 -19.29993 -19.23162 -14.48774 -10.45480
 Alpha  occ. eigenvalues --  -10.42040 -10.33436 -10.33071 -10.31932  -9.60684
 Alpha  occ. eigenvalues --   -8.83197  -8.82115  -7.35375  -7.34447  -7.34398
 Alpha  occ. eigenvalues --   -6.65424  -6.64312  -6.64179  -6.64142  -6.63103
 Alpha  occ. eigenvalues --   -6.63089  -2.75793  -2.75445  -2.75416  -2.74695
 Alpha  occ. eigenvalues --   -2.74409  -2.74409  -2.74339  -2.74328  -2.73350
 Alpha  occ. eigenvalues --   -2.73350  -1.21616  -1.12053  -1.04935  -1.00514
 Alpha  occ. eigenvalues --   -0.92427  -0.89843  -0.84956  -0.80056  -0.79121
 Alpha  occ. eigenvalues --   -0.71244  -0.65016  -0.63650  -0.60197  -0.58565
 Alpha  occ. eigenvalues --   -0.57959  -0.57444  -0.54895  -0.53923  -0.52529
 Alpha  occ. eigenvalues --   -0.49372  -0.48518  -0.48215  -0.46619  -0.45234
 Alpha  occ. eigenvalues --   -0.42566  -0.41040  -0.40672  -0.39856  -0.38160
 Alpha  occ. eigenvalues --   -0.37668  -0.37518  -0.35756  -0.28997
 Alpha virt. eigenvalues --    0.00660   0.03783   0.05490   0.10329   0.12406
 Alpha virt. eigenvalues --    0.13650   0.14361   0.15314   0.16288   0.16798
 Alpha virt. eigenvalues --    0.18909   0.19841   0.19993   0.20780   0.20867

 Mulliken charges:
               1
     1  C   -0.343278
     2  C    0.435313
     3  O   -0.451387
     4  C    0.201278
     5  C   -0.289604
     6  H    0.161531
     7  H    0.157888
     8  H    0.154739
     9  N   -0.364898
    10  H    0.293146
    11  H    0.288088
    12  Cl  -0.024316
    13  Br  -0.054743
    14  Br  -0.086371
    15  O   -0.303423
    16  C   -0.194907
    17  H    0.138353
    18  H    0.145542
    19  H    0.137049
 Sum of Mulliken charges =  -0.00000

 Dipole moment (field-independent basis, Debye):
    X=             -5.9355    Y=             -1.9795    Z=              6.9398  Tot=              9.3440
 Quadrupole moment (field-independent basis, Debye-Ang):
   XX=            -97.6575   YY=            -96.1963   ZZ=            -85.4844
   XY=             -9.1128   XZ=             -2.6569   YZ=              0.1565

  Exact polarizability: 205.699   7.398 190.876  -7.330 -11.491 162.154
 Approx polarizability: 168.440   4.938 156.360  -6.410  -8.510 136.701

 ******    1 imaginary frequencies (negative Signs) ******

                      1                      2                      3
                      A                      A                      A
 Frequencies --   -365.6953                49.7911                69.8636
 Red. masses --      5.8659                 5.0759                 6.1052
 Frc consts  --      0.4622                 0.0074                 0.0176
 IR Inten    --    688.3196                 0.9325                 2.6739

                      4                      5                      6
                      A                      A                      A
 Frequencies --     73.7854                92.2727               125.2376
 Red. masses --      3.7104                 3.9676                 3.5830
 Frc consts  --      0.0119                 0.0199                 0.0331
 IR Inten    --      3.9552                 3.1297                 2.9413

                      7                      8                      9
                      A                      A                      A
 Frequencies --    144.4999               155.1208               167.1337
 Red. masses --      1.7157                 1.5998                 2.0377
 Frc consts  --      0.0211                 0.0227                 0.0335
 IR Inten    --      2.3311                 2.3016                 0.6311

                     10                     11                     12
                      A                      A                      A
 Frequencies --    174.0262               185.5843               221.1404
 Red. masses --      6.3011                 3.3124                 6.6112
 Frc consts  --      0.1124                 0.0672                 0.1905
 IR Inten    --      0.1841                 5.1862                 3.6560

                     13                     14                     15
                      A                      A                      A
 Frequencies --    249.8710               265.0873               279.6255
 Red. masses --      5.2464                 5.1926                 5.2981
 Frc consts  --      0.1930                 0.2150                 0.2441
 IR Inten    --     10.5545                21.9579                15.0831

                     16                     17                     18
                      A                      A                      A
 Frequencies --    299.1685               348.8233               425.8968
 Red. masses --      7.1250                 5.2299                11.7086
 Frc consts  --      0.3757                 0.3749                 1.2513
 IR Inten    --      8.5765                19.8838                 8.3888

                     19                     20                     21
                      A                      A                      A
 Frequencies --    494.5603               630.6456               724.7130
 Red. masses --      8.3022                 1.4660                 6.2642
 Frc consts  --      1.1964                 0.3435                 1.9384
 IR Inten    --    118.8233                11.9000               203.5588

                     22                     23                     24
                      A                      A                      A
 Frequencies --    746.5044               786.3337               883.6803
 Red. masses --      6.1576                11.1953                 6.3866
 Frc consts  --      2.0218                 4.0785                 2.9384
 IR Inten    --     65.5170                54.3583                82.1892

                     25                     26                     27
                      A                      A                      A
 Frequencies --    941.5862               992.4197              1023.9570
 Red. masses --      6.6000                 1.0972                 1.1137
 Frc consts  --      3.4476                 0.6367                 0.6880
 IR Inten    --     12.0333                71.5476                91.2345

                     28                     29                     30
                      A                      A                      A
 Frequencies --   1084.6317              1115.7241              1182.5717
 Red. masses --      4.7619                 8.6395                 1.2812
 Frc consts  --      3.3006                 6.3366                 1.0557
 IR Inten    --     35.3801               138.2103                 1.9959

                     31                     32                     33
                      A                      A                      A
 Frequencies --   1202.2567              1219.2247              1288.9933
 Red. masses --      1.4271                 1.5470                 7.3533
 Frc consts  --      1.2154                 1.3549                 7.1984
 IR Inten    --     26.0598                63.4773               842.8538

                     34                     35                     36
                      A                      A                      A
 Frequencies --   1342.0545              1412.4055              1458.9478
 Red. masses --      1.3295                 6.1669                 1.2820
 Frc consts  --      1.4108                 7.2483                 1.6078
 IR Inten    --      0.6250               796.7974                38.8419

                     37                     38                     39
                      A                      A                      A
 Frequencies --   1479.3064              1482.8745              1488.7495
 Red. masses --      1.1941                 1.0437                 1.0421
 Frc consts  --      1.5396                 1.3522                 1.3609
 IR Inten    --     37.2755                13.9821                24.4321

                     40                     41                     42
                      A                      A                      A
 Frequencies --   1495.0053              1499.9785              1639.7376
 Red. masses --      1.0586                 1.0334                 1.0938
 Frc consts  --      1.3940                 1.3699                 1.7328
 IR Inten    --     24.2515                12.2755                72.7226

                     43                     44                     45
                      A                      A                      A
 Frequencies --   1734.0892              3066.6475              3071.3466
 Red. masses --     11.5723                 1.0332                 1.0303
 Frc consts  --     20.5027                 5.7247                 5.7263
 IR Inten    --    907.2819                29.5686                49.1295

                     46                     47                     48
                      A                      A                      A
 Frequencies --   3141.2598              3152.3269              3166.2987
 Red. masses --      1.1045                 1.1073                 1.1052
 Frc consts  --      6.4213                 6.4832                 6.5285
 IR Inten    --     10.9460                27.9783                11.5956

                     49                     50                     51
                      A                      A                      A
 Frequencies --   3183.9426              3524.7305              3615.1581
 Red. masses --      1.1063                 1.0497                 1.0975
 Frc consts  --      6.6076                 7.6840                 8.4511
 IR Inten    --     16.6688                64.7578                75.5628

 - Thermochemistry -
 -------------------
 Temperature   298.150 Kelvin.  Pressure   1.00000 Atm.
 Atom     1 has atomic number  6 and mass  12.00000

 Molecular mass:   306.86103 amu.
 Principal axes and moments of inertia in atomic units:
                           1         2         3
     Eigenvalues --  3116.366834148.569385454.66098
           X            0.99715  -0.07317  -0.01819
           Y            0.07288   0.99721  -0.01641
           Z            0.01934   0.01504   0.99970
 This molecule is an asymmetric top.
 Rotational symmetry number  1.
 Warning -- assumption of classical behavior for rotation
           may cause significant error
 Rotational temperatures (Kelvin)      0.02779     0.02088     0.01588
 Rotational constants (GHZ):           0.57912     0.43503     0.33086
    1 imaginary frequencies ignored.
 Zero-point vibrational energy     350503.4 (Joules/Mol)
                                   83.77232 (Kcal/Mol)
 Warning -- explicit consideration of  18 degrees of freedom as
           vibrations may cause significant error
 Vibrational temperatures:     71.64   100.52   106.16   132.76   180.19
          (Kelvin)            207.90   223.18   240.47   250.38   267.01
                              318.17   359.51   381.40   402.32   430.44
                              501.88   612.77   711.56   907.36  1042.70
                             1074.05  1131.36  1271.42  1354.73  1427.87
                             1473.25  1560.54  1605.28  1701.46  1729.78
                             1754.19  1854.57  1930.92  2032.14  2099.10
                             2128.39  2133.53  2141.98  2150.98  2158.13
                             2359.22  2494.97  4412.22  4418.98  4519.57
                             4535.50  4555.60  4580.98  5071.30  5201.41

 Zero-point correction=                           0.133500 (Hartree/Particle)
 Thermal correction to Energy=                    0.147260
 Thermal correction to Enthalpy=                  0.148204
 Thermal correction to Gibbs Free Energy=         0.090802
 Sum of electronic and zero-point Energies=          -6009.032791
 Sum of electronic and thermal Energies=             -6009.019030
 Sum of electronic and thermal Enthalpies=           -6009.018086
 Sum of electronic and thermal Free Energies=        -6009.075488

                     E (Thermal)             CV                S
                      KCal/Mol        Cal/Mol-Kelvin    Cal/Mol-Kelvin
 Total                   92.407             45.111            120.813
 Electronic               0.000              0.000              0.000
 Translational            0.889              2.981             43.060
 Rotational               0.889              2.981             32.622
 Vibrational             90.630             39.149             45.131
 Vibration     1          0.595              1.978              4.826
 Vibration     2          0.598              1.968              4.157
 Vibration     3          0.599              1.966              4.050
 Vibration     4          0.602              1.955              3.611
 Vibration     5          0.610              1.928              3.018
 Vibration     6          0.616              1.909              2.743
 Vibration     7          0.620              1.897              2.608
 Vibration     8          0.624              1.883              2.467
 Vibration     9          0.627              1.874              2.392
 Vibration    10          0.632              1.860              2.271
 Vibration    11          0.648              1.809              1.950
 Vibration    12          0.663              1.763              1.731
 Vibration    13          0.671              1.737              1.628
 Vibration    14          0.680              1.711              1.536
 Vibration    15          0.692              1.675              1.422
 Vibration    16          0.726              1.578              1.172
 Vibration    17          0.788              1.414              0.872
 Vibration    18          0.850              1.262              0.672

 Optimization completed.
    -- Stationary point found.
 Normal termination of Gaussian 16 at Sun Feb 28 15:16:13 2021.
