 Gaussian 16, Revision A.03,
 Gaussian 16:  ES64L-G16RevA.03 25-Dec-2016

 ----------------------------------------------------------------------
 # wB97XD def2tzvp, opt=(ts, noeigen, calcfc, maxcycles=70, maxstep=8),
  freq=noraman, scrf=(iefpcm, solvent=water)
 ----------------------------------------------------------------------

 ------------------------
 1_iteration/TS-918-1.out
 ------------------------
 Symbolic Z-matrix:
 Charge =  0 Multiplicity = 1

 SCF Done:  E(RwB97XD) =  -1380.31534467     A.U. after   15 cycles
 SCF Done:  E(RwB97XD) =  -1380.31581352     A.U. after   13 cycles
 SCF Done:  E(RwB97XD) =  -1380.31586659     A.U. after   12 cycles
 SCF Done:  E(RwB97XD) =  -1380.31587824     A.U. after   10 cycles
 SCF Done:  E(RwB97XD) =  -1380.31587835     A.U. after    8 cycles
 SCF Done:  E(RwB97XD) =  -1380.31585415     A.U. after   10 cycles
 SCF Done:  E(RwB97XD) =  -1380.31587834     A.U. after   10 cycles
 SCF Done:  E(RwB97XD) =  -1380.31587837     A.U. after    7 cycles
 Optimization completed.
    -- Stationary point found.
 Normal termination of Gaussian 16 at Sun Feb 28 14:50:44 2021.

 ---------------------------------------------------------------------
 #N Geom=AllCheck Guess=TCheck SCRF=Check GenChk RwB97XD/def2TZVP Freq
 ---------------------------------------------------------------------

 Structure from the checkpoint file:  "/beegfs/scratch/user/q/tla25/Gau-29321.chk"
 ------------------------
 1_iteration/TS-918-1.out
 ------------------------
 Charge =  0 Multiplicity = 1

                         Standard orientation:
 ---------------------------------------------------------------------
 Center     Atomic      Atomic             Coordinates (Angstroms)
 Number     Number       Type             X           Y           Z
 ---------------------------------------------------------------------
      1          6           0       -0.207957   -0.412226    0.144879
      2          6           0       -1.234176    0.625934    0.054560
      3          8           0       -0.926671    1.826316   -0.084460
      4          6           0        1.101400   -0.037880    0.495641
      5          6           0        3.067405    1.682646   -0.835929
      6          1           0        3.304201    2.165002   -1.785110
      7          1           0        3.061867    2.436017   -0.051964
      8          1           0        3.831570    0.939064   -0.614198
      9          7           0        1.761366    1.029541   -0.891499
     10          1           0        0.982446    1.689576   -0.916015
     11          1           0        1.685118    0.419629   -1.697457
     12         17           0        2.307575   -1.340520    0.505054
     13          6           0        1.312692    0.868339    1.684114
     14          1           0        0.650309    1.727312    1.621794
     15          1           0        1.089307    0.307232    2.590704
     16          1           0        2.345659    1.205914    1.739299
     17         17           0       -0.420354   -1.770223   -0.971534
     18          7           0       -2.540497    0.261195    0.095517
     19          6           0       -3.015416   -0.989885    0.645987
     20          6           0       -3.563149    1.234575   -0.220635
     21          1           0       -2.206755   -1.505622    1.156532
     22          1           0       -3.806688   -0.781565    1.370483
     23          1           0       -3.420663   -1.644147   -0.130020
     24          1           0       -3.157812    1.994514   -0.882780
     25          1           0       -4.394166    0.729990   -0.716042
     26          1           0       -3.944649    1.725014    0.680797
 ---------------------------------------------------------------------

 SCF Done:  E(RwB97XD) =  -1380.31587837     A.U. after    1 cycles

 The electronic state is 1-A.
 Alpha  occ. eigenvalues -- -101.69941-101.68422 -19.20705 -14.48477 -14.45779
 Alpha  occ. eigenvalues --  -10.40442 -10.38247 -10.31877 -10.30616 -10.30431
 Alpha  occ. eigenvalues --  -10.30098 -10.28580  -9.58541  -9.56936  -7.33177
 Alpha  occ. eigenvalues --   -7.32335  -7.32283  -7.31563  -7.30733  -7.30710
 Alpha  occ. eigenvalues --   -1.13400  -1.04576  -1.03169  -0.98393  -0.93663
 Alpha  occ. eigenvalues --   -0.86240  -0.82004  -0.80474  -0.79626  -0.76445
 Alpha  occ. eigenvalues --   -0.67690  -0.63490  -0.62029  -0.59166  -0.56899
 Alpha  occ. eigenvalues --   -0.56405  -0.56038  -0.55740  -0.54217  -0.51287
 Alpha  occ. eigenvalues --   -0.49933  -0.48504  -0.48433  -0.48055  -0.47599
 Alpha  occ. eigenvalues --   -0.47192  -0.46622  -0.45553  -0.44316  -0.41454
 Alpha  occ. eigenvalues --   -0.40563  -0.39390  -0.38204  -0.34624  -0.31955
 Alpha  occ. eigenvalues --   -0.26323
 Alpha virt. eigenvalues --    0.05794   0.07433   0.10553   0.12197   0.12414
 Alpha virt. eigenvalues --    0.14092   0.15620   0.16108   0.17120   0.17723
 Alpha virt. eigenvalues --    0.18073   0.18687   0.19102   0.19233   0.20101

 Mulliken charges:
               1
     1  C   -0.263526
     2  C    0.338397
     3  O   -0.580668
     4  C    0.188505
     5  C   -0.296367
     6  H    0.156934
     7  H    0.161459
     8  H    0.149877
     9  N   -0.300813
    10  H    0.275614
    11  H    0.279040
    12  Cl  -0.109476
    13  C   -0.426044
    14  H    0.162996
    15  H    0.149418
    16  H    0.149605
    17  Cl  -0.190702
    18  N   -0.104232
    19  C   -0.301923
    20  C   -0.289234
    21  H    0.159276
    22  H    0.136377
    23  H    0.140332
    24  H    0.140414
    25  H    0.139255
    26  H    0.135484
 Sum of Mulliken charges =  -0.00000

 Dipole moment (field-independent basis, Debye):
    X=              2.1176    Y=              2.6864    Z=             -0.7706  Tot=              3.5064
 Quadrupole moment (field-independent basis, Debye-Ang):
   XX=            -68.9043   YY=            -93.3829   ZZ=            -82.7799
   XY=             10.1910   XZ=             -5.6805   YZ=             -2.6955

  Exact polarizability: 227.042  10.337 181.468  -6.809   0.038 146.597
 Approx polarizability: 166.643   6.473 155.571  -4.118   0.032 128.549

 ******    1 imaginary frequencies (negative Signs) ******

                      1                      2                      3
                      A                      A                      A
 Frequencies --   -385.4470                55.0171                64.6961
 Red. masses --      6.3533                 4.7601                 3.7449
 Frc consts  --      0.5561                 0.0085                 0.0092
 IR Inten    --    948.2378                 2.1228                 8.2770

                      4                      5                      6
                      A                      A                      A
 Frequencies --     97.4860               102.4852               115.4640
 Red. masses --      2.8469                 1.5463                 2.7190
 Frc consts  --      0.0159                 0.0096                 0.0214
 IR Inten    --      4.7959                 2.6780                 8.0244

                      7                      8                      9
                      A                      A                      A
 Frequencies --    124.6635               161.1460               170.5742
 Red. masses --      2.0770                 1.5921                 1.8440
 Frc consts  --      0.0190                 0.0244                 0.0316
 IR Inten    --     23.1808                 7.4490                 6.9118

                     10                     11                     12
                      A                      A                      A
 Frequencies --    198.6774               201.6101               235.5188
 Red. masses --      2.5580                 3.2822                 2.8032
 Frc consts  --      0.0595                 0.0786                 0.0916
 IR Inten    --      3.8667                 4.8067                11.2717

                     13                     14                     15
                      A                      A                      A
 Frequencies --    251.3759               262.9642               283.9525
 Red. masses --      2.1060                 2.4491                 1.7680
 Frc consts  --      0.0784                 0.0998                 0.0840
 IR Inten    --     15.6210                 8.8618                 6.1040

                     16                     17                     18
                      A                      A                      A
 Frequencies --    290.3109               312.2715               354.7048
 Red. masses --      2.6256                 3.3270                 3.8426
 Frc consts  --      0.1304                 0.1911                 0.2848
 IR Inten    --     24.8131                24.1597                 9.3354

                     19                     20                     21
                      A                      A                      A
 Frequencies --    374.3032               408.4308               471.1641
 Red. masses --      3.5115                 3.4114                 3.3826
 Frc consts  --      0.2899                 0.3353                 0.4424
 IR Inten    --     20.7713                 7.1698                67.2270

                     22                     23                     24
                      A                      A                      A
 Frequencies --    524.0403               538.1115               661.8592
 Red. masses --      5.3612                 6.1476                 6.4962
 Frc consts  --      0.8675                 1.0488                 1.6766
 IR Inten    --     87.1584                30.6023                23.7253

                     25                     26                     27
                      A                      A                      A
 Frequencies --    705.8777               748.6827               780.9643
 Red. masses --      2.1397                 1.9426                 7.8128
 Frc consts  --      0.6281                 0.6416                 2.8075
 IR Inten    --     24.5706                45.0173                84.6418

                     28                     29                     30
                      A                      A                      A
 Frequencies --    913.7715              1000.1741              1042.0072
 Red. masses --      4.0253                 2.6780                 1.2805
 Frc consts  --      1.9802                 1.5784                 0.8192
 IR Inten    --     11.1363               125.9030                28.8311

                     31                     32                     33
                      A                      A                      A
 Frequencies --   1052.4053              1060.2996              1073.2792
 Red. masses --      2.0278                 1.4903                 1.4144
 Frc consts  --      1.3232                 0.9872                 0.9600
 IR Inten    --      7.4791                41.9843               151.6277

                     34                     35                     36
                      A                      A                      A
 Frequencies --   1091.8407              1108.4150              1133.5324
 Red. masses --      1.3874                 2.1737                 1.2284
 Frc consts  --      0.9745                 1.5734                 0.9299
 IR Inten    --     22.9555               178.9325                 0.0600

                     37                     38                     39
                      A                      A                      A
 Frequencies --   1149.9049              1171.4632              1224.6286
 Red. masses --      2.4234                 1.4120                 2.0192
 Frc consts  --      1.8880                 1.1417                 1.7842
 IR Inten    --     58.2931                 3.1444               244.0083

                     40                     41                     42
                      A                      A                      A
 Frequencies --   1239.3995              1316.8114              1350.5393
 Red. masses --      1.8389                 5.3099                 1.2812
 Frc consts  --      1.6643                 5.4248                 1.3769
 IR Inten    --    105.0946                41.4999                 5.6448

                     43                     44                     45
                      A                      A                      A
 Frequencies --   1379.0050              1412.5651              1435.6499
 Red. masses --      2.8986                 1.5070                 1.5511
 Frc consts  --      3.2476                 1.7716                 1.8836
 IR Inten    --    737.7094               229.3577                94.3101

                     46                     47                     48
                      A                      A                      A
 Frequencies --   1446.9781              1458.7504              1472.5362
 Red. masses --      1.3820                 1.2002                 1.1931
 Frc consts  --      1.7048                 1.5048                 1.5242
 IR Inten    --     71.2510                12.4106                52.6946

                     49                     50                     51
                      A                      A                      A
 Frequencies --   1482.2708              1485.4261              1487.3447
 Red. masses --      1.0847                 1.0962                 1.0479
 Frc consts  --      1.4042                 1.4250                 1.3658
 IR Inten    --     22.2262                30.0346                 2.5215

                     52                     53                     54
                      A                      A                      A
 Frequencies --   1496.9966              1500.3026              1503.7365
 Red. masses --      1.0507                 1.0479                 1.0626
 Frc consts  --      1.3873                 1.3897                 1.4157
 IR Inten    --     10.4258                10.7123                36.5377

                     55                     56                     57
                      A                      A                      A
 Frequencies --   1506.5295              1534.3221              1613.3681
 Red. masses --      1.0383                 1.6986                 5.4804
 Frc consts  --      1.3885                 2.3560                 8.4048
 IR Inten    --     12.2610               222.9850               694.6907

                     58                     59                     60
                      A                      A                      A
 Frequencies --   1657.9343              3033.1518              3041.1612
 Red. masses --      1.0881                 1.0434                 1.0385
 Frc consts  --      1.7622                 5.6556                 5.6589
 IR Inten    --     45.9238                79.8361               116.6095

                     61                     62                     63
                      A                      A                      A
 Frequencies --   3068.9586              3083.6495              3095.8280
 Red. masses --      1.0353                 1.0358                 1.1024
 Frc consts  --      5.7452                 5.8033                 6.2248
 IR Inten    --     50.6871                17.0967                72.9869

                     64                     65                     66
                      A                      A                      A
 Frequencies --   3104.4702              3145.4711              3160.6505
 Red. masses --      1.0979                 1.1032                 1.1025
 Frc consts  --      6.2341                 6.4309                 6.4893
 IR Inten    --     18.8025                14.4846                13.7160

                     67                     68                     69
                      A                      A                      A
 Frequencies --   3173.0495              3174.1262              3175.0653
 Red. masses --      1.0988                 1.0996                 1.1051
 Frc consts  --      6.5182                 6.5274                 6.5636
 IR Inten    --     10.7507                10.6211                14.4450

                     70                     71                     72
                      A                      A                      A
 Frequencies --   3184.9046              3422.2852              3574.2676
 Red. masses --      1.1039                 1.0640                 1.0857
 Frc consts  --      6.5972                 7.3425                 8.1720
 IR Inten    --      0.8882               132.4197                62.9819

 - Thermochemistry -
 -------------------
 Temperature   298.150 Kelvin.  Pressure   1.00000 Atm.
 Atom     1 has atomic number  6 and mass  12.00000

 Molecular mass:   212.04832 amu.
 Principal axes and moments of inertia in atomic units:
                           1         2         3
     Eigenvalues --  1718.122713646.153924442.51429
           X            0.99908   0.04063  -0.01366
           Y           -0.04098   0.99881  -0.02647
           Z            0.01256   0.02700   0.99956
 This molecule is an asymmetric top.
 Rotational symmetry number  1.
 Warning -- assumption of classical behavior for rotation
           may cause significant error
 Rotational temperatures (Kelvin)      0.05041     0.02375     0.01950
 Rotational constants (GHZ):           1.05041     0.49497     0.40624
    1 imaginary frequencies ignored.
 Zero-point vibrational energy     560663.3 (Joules/Mol)
                                  134.00174 (Kcal/Mol)
 Warning -- explicit consideration of  22 degrees of freedom as
           vibrations may cause significant error
 Vibrational temperatures:     79.16    93.08   140.26   147.45   166.13
          (Kelvin)            179.36   231.85   245.42   285.85   290.07
                              338.86   361.67   378.35   408.54   417.69
                              449.29   510.34   538.54   587.64   677.90
                              753.98   774.22   952.27  1015.60  1077.19
                             1123.63  1314.71  1439.03  1499.22  1514.18
                             1525.53  1544.21  1570.92  1594.76  1630.90
                             1654.46  1685.47  1761.97  1783.22  1894.60
                             1943.12  1984.08  2032.37  2065.58  2081.88
                             2098.82  2118.65  2132.66  2137.20  2139.96
                             2153.84  2158.60  2163.54  2167.56  2207.55
                             2321.28  2385.40  4364.03  4375.55  4415.55
                             4436.68  4454.21  4466.64  4525.63  4547.47
                             4565.31  4566.86  4568.21  4582.37  4923.91
                             5142.57

 Zero-point correction=                           0.213545 (Hartree/Particle)
 Thermal correction to Energy=                    0.228473
 Thermal correction to Enthalpy=                  0.229417
 Thermal correction to Gibbs Free Energy=         0.171564
 Sum of electronic and zero-point Energies=          -1380.102333
 Sum of electronic and thermal Energies=             -1380.087405
 Sum of electronic and thermal Enthalpies=           -1380.086461
 Sum of electronic and thermal Free Energies=        -1380.144314

                     E (Thermal)             CV                S
                      KCal/Mol        Cal/Mol-Kelvin    Cal/Mol-Kelvin
 Total                  143.369             52.124            121.763
 Electronic               0.000              0.000              0.000
 Translational            0.889              2.981             41.959
 Rotational               0.889              2.981             31.698
 Vibrational            141.592             46.162             48.106
 Vibration     1          0.596              1.976              4.628
 Vibration     2          0.597              1.971              4.309
 Vibration     3          0.603              1.951              3.504
 Vibration     4          0.605              1.947              3.406
 Vibration     5          0.608              1.937              3.175
 Vibration     6          0.610              1.928              3.027
 Vibration     7          0.622              1.890              2.536
 Vibration     8          0.626              1.879              2.429
 Vibration     9          0.637              1.842              2.145
 Vibration    10          0.638              1.838              2.118
 Vibration    11          0.655              1.786              1.836
 Vibration    12          0.663              1.760              1.721
 Vibration    13          0.670              1.741              1.642
 Vibration    14          0.682              1.703              1.510
 Vibration    15          0.686              1.692              1.472
 Vibration    16          0.701              1.650              1.350
 Vibration    17          0.731              1.566              1.145
 Vibration    18          0.745              1.525              1.062
 Vibration    19          0.773              1.452              0.932
 Vibration    20          0.828              1.314              0.734
 Vibration    21          0.879              1.197              0.601
 Vibration    22          0.893              1.166              0.569

 Optimization completed.
    -- Stationary point found.
 Normal termination of Gaussian 16 at Sun Feb 28 15:22:38 2021.
