 Gaussian 16, Revision A.03,
 Gaussian 16:  ES64L-G16RevA.03 25-Dec-2016

 ----------------------------------------------------------------------
 # wB97XD def2tzvp, opt=(ts, noeigen, calcfc, maxcycles=70, maxstep=8),
  freq=noraman, scrf=(iefpcm, solvent=water)
 ----------------------------------------------------------------------

 ------------------------
 1_iteration/TS-924-1.out
 ------------------------
 Symbolic Z-matrix:
 Charge =  0 Multiplicity = 1

 SCF Done:  E(RwB97XD) =  -3666.59873060     A.U. after   15 cycles
 SCF Done:  E(RwB97XD) =  -3666.60145843     A.U. after   13 cycles
 SCF Done:  E(RwB97XD) =  -3666.60388038     A.U. after   13 cycles
 SCF Done:  E(RwB97XD) =  -3666.60655156     A.U. after   13 cycles
 SCF Done:  E(RwB97XD) =  -3666.60901436     A.U. after   13 cycles
 SCF Done:  E(RwB97XD) =  -3666.60999127     A.U. after   13 cycles
 SCF Done:  E(RwB97XD) =  -3666.61002054     A.U. after   12 cycles
 SCF Done:  E(RwB97XD) =  -3666.61004947     A.U. after   12 cycles
 SCF Done:  E(RwB97XD) =  -3666.61008092     A.U. after   12 cycles
 SCF Done:  E(RwB97XD) =  -3666.61015919     A.U. after   12 cycles
 SCF Done:  E(RwB97XD) =  -3666.61017286     A.U. after   10 cycles
 SCF Done:  E(RwB97XD) =  -3666.61017221     A.U. after    9 cycles
 SCF Done:  E(RwB97XD) =  -3666.61017358     A.U. after    9 cycles
 SCF Done:  E(RwB97XD) =  -3666.61017369     A.U. after    8 cycles
 SCF Done:  E(RwB97XD) =  -3666.61017326     A.U. after    8 cycles
 SCF Done:  E(RwB97XD) =  -3666.61017368     A.U. after    8 cycles
 SCF Done:  E(RwB97XD) =  -3666.61017368     A.U. after    6 cycles
 SCF Done:  E(RwB97XD) =  -3666.61017368     A.U. after    7 cycles
 SCF Done:  E(RwB97XD) =  -3666.61017369     A.U. after    7 cycles
 Optimization completed.
    -- Stationary point found.
 Normal termination of Gaussian 16 at Sun Feb 28 19:20:54 2021.

 ---------------------------------------------------------------------
 #N Geom=AllCheck Guess=TCheck SCRF=Check GenChk RwB97XD/def2TZVP Freq
 ---------------------------------------------------------------------

 Structure from the checkpoint file:  "/beegfs/scratch/user/q/tla25/Gau-101479.chk"
 ------------------------
 1_iteration/TS-924-1.out
 ------------------------
 Charge =  0 Multiplicity = 1

                         Standard orientation:
 ---------------------------------------------------------------------
 Center     Atomic      Atomic             Coordinates (Angstroms)
 Number     Number       Type             X           Y           Z
 ---------------------------------------------------------------------
      1          6           0        0.233386    0.357251   -0.133726
      2          6           0       -0.242555    1.708173   -0.357473
      3          8           0        0.426635    2.620016   -0.806859
      4          6           0       -0.625863   -0.687802    0.136918
      5          6           0       -0.609168    0.014584    2.891731
      6          1           0       -1.115252    0.321420    3.807192
      7          1           0        0.079691   -0.798281    3.114544
      8          1           0       -0.046221    0.861880    2.500310
      9          7           0       -1.551699   -0.415280    1.874873
     10          1           0       -2.043894   -1.265455    2.122509
     11          1           0       -2.223080    0.310843    1.654097
     12         17           0        0.085514   -2.253622    0.457743
     13         35           0       -2.280218   -0.938299   -0.889535
     14          6           0        1.713211    0.170988   -0.174194
     15          6           0        2.310409   -0.476383   -1.254019
     16          6           0        3.686413   -0.636947   -1.317995
     17          6           0        4.492473   -0.140820   -0.303201
     18          6           0        3.912212    0.517409    0.771754
     19          6           0        2.534958    0.670542    0.833164
     20          1           0        1.684473   -0.859845   -2.050799
     21          1           0        4.130027   -1.146209   -2.164550
     22          1           0        5.567167   -0.263641   -0.351267
     23          1           0        4.532915    0.910990    1.567096
     24          1           0        2.092175    1.187231    1.675701
     25          8           0       -1.519681    1.900418    0.033661
     26          6           0       -2.074645    3.189276   -0.206383
     27          1           0       -2.046915    3.429926   -1.268869
     28          1           0       -3.103922    3.136084    0.137996
     29          1           0       -1.531988    3.952961    0.350140
 ---------------------------------------------------------------------

 SCF Done:  E(RwB97XD) =  -3666.61017369     A.U. after    1 cycles

 The electronic state is 1-A.
 Alpha  occ. eigenvalues -- -483.13552-101.71463 -62.68393 -56.47524 -56.47149
 Alpha  occ. eigenvalues --  -56.47138 -19.29326 -19.22393 -14.48460 -10.44526
 Alpha  occ. eigenvalues --  -10.40917 -10.33120 -10.31781 -10.30277 -10.28885
 Alpha  occ. eigenvalues --  -10.28847 -10.28798 -10.28746 -10.28685 -10.28491
 Alpha  occ. eigenvalues --   -9.60039  -8.82496  -7.34713  -7.33809  -7.33764
 Alpha  occ. eigenvalues --   -6.64684  -6.63499  -6.63463  -2.75059  -2.74730
 Alpha  occ. eigenvalues --   -2.74700  -2.73742  -2.73742  -1.20777  -1.11129
 Alpha  occ. eigenvalues --   -1.04537  -0.99802  -0.96394  -0.90369  -0.88225
 Alpha  occ. eigenvalues --   -0.84918  -0.84151  -0.80208  -0.78963  -0.71362
 Alpha  occ. eigenvalues --   -0.70270  -0.69141  -0.64766  -0.63614  -0.61429
 Alpha  occ. eigenvalues --   -0.59206  -0.57908  -0.57354  -0.56996  -0.54911
 Alpha  occ. eigenvalues --   -0.54514  -0.53807  -0.52566  -0.51987  -0.50712
 Alpha  occ. eigenvalues --   -0.48919  -0.48358  -0.48089  -0.46992  -0.46244
 Alpha  occ. eigenvalues --   -0.44701  -0.42987  -0.42679  -0.41584  -0.40401
 Alpha  occ. eigenvalues --   -0.39307  -0.37270  -0.37051  -0.36253  -0.33576
 Alpha  occ. eigenvalues --   -0.33337  -0.28790
 Alpha virt. eigenvalues --    0.01501   0.03994   0.05561   0.05853   0.09213
 Alpha virt. eigenvalues --    0.10504   0.12935   0.13710   0.14485   0.15687
 Alpha virt. eigenvalues --    0.15992   0.16304   0.16934   0.18046   0.18132

 Mulliken charges:
               1
     1  C   -0.325069
     2  C    0.420944
     3  O   -0.469058
     4  C    0.184446
     5  C   -0.280160
     6  H    0.163602
     7  H    0.155864
     8  H    0.137777
     9  N   -0.352677
    10  H    0.290095
    11  H    0.285915
    12  Cl  -0.041707
    13  Br  -0.084705
    14  C    0.225270
    15  C   -0.246278
    16  C   -0.142708
    17  C   -0.139717
    18  C   -0.154367
    19  C   -0.236049
    20  H    0.141004
    21  H    0.140613
    22  H    0.143222
    23  H    0.140066
    24  H    0.143493
    25  O   -0.311354
    26  C   -0.199010
    27  H    0.134846
    28  H    0.142290
    29  H    0.133413
 Sum of Mulliken charges =  -0.00000

 Dipole moment (field-independent basis, Debye):
    X=             -4.3861    Y=             -1.6340    Z=              6.4799  Tot=              7.9936
 Quadrupole moment (field-independent basis, Debye-Ang):
   XX=           -101.0262   YY=           -118.9542   ZZ=           -100.0859
   XY=             -9.1927   XZ=             -5.7015   YZ=              5.1503

  Exact polarizability: 290.120   7.097 233.244  -3.908   7.049 237.330
 Approx polarizability: 226.912   5.015 193.951  -2.082   6.680 199.776

 ******    1 imaginary frequencies (negative Signs) ******

                      1                      2                      3
                      A                      A                      A
 Frequencies --   -373.9054                24.9527                50.2542
 Red. masses --      5.7841                 3.6046                 5.2188
 Frc consts  --      0.4764                 0.0013                 0.0078
 IR Inten    --    659.6323                 0.0032                 4.8179

                      4                      5                      6
                      A                      A                      A
 Frequencies --     61.1830                72.0284                77.9299
 Red. masses --      2.8891                 5.1325                 5.7710
 Frc consts  --      0.0064                 0.0157                 0.0206
 IR Inten    --      1.0980                 4.6818                 2.9509

                      7                      8                      9
                      A                      A                      A
 Frequencies --     88.2058               122.9282               134.7594
 Red. masses --      3.1708                 2.5851                 2.8735
 Frc consts  --      0.0145                 0.0230                 0.0307
 IR Inten    --      1.3906                 4.2309                 1.3407

                     10                     11                     12
                      A                      A                      A
 Frequencies --    152.6880               163.2918               185.5063
 Red. masses --      1.4291                 1.9822                 2.9040
 Frc consts  --      0.0196                 0.0311                 0.0589
 IR Inten    --      3.5925                 0.4964                 5.9162

                     13                     14                     15
                      A                      A                      A
 Frequencies --    208.3677               223.1357               239.9160
 Red. masses --      4.8603                 5.9063                 4.7821
 Frc consts  --      0.1243                 0.1733                 0.1622
 IR Inten    --      2.5357                 2.1733                 3.4913

                     16                     17                     18
                      A                      A                      A
 Frequencies --    260.9165               267.7989               290.7449
 Red. masses --      4.1271                 5.2188                 5.5175
 Frc consts  --      0.1655                 0.2205                 0.2748
 IR Inten    --     33.9786                11.0512                12.7478

                     19                     20                     21
                      A                      A                      A
 Frequencies --    337.4687               367.1002               422.6159
 Red. masses --      6.4507                 5.0090                 2.8690
 Frc consts  --      0.4328                 0.3977                 0.3019
 IR Inten    --     12.8245                27.8579                 0.0973

                     22                     23                     24
                      A                      A                      A
 Frequencies --    435.6928               522.8592               541.1488
 Red. masses --      8.7808                 3.7115                 7.7252
 Frc consts  --      0.9821                 0.5978                 1.3329
 IR Inten    --     18.1020                13.0392                91.6075

                     25                     26                     27
                      A                      A                      A
 Frequencies --    625.6979               636.4612               652.9994
 Red. masses --      1.7628                 4.1978                 4.9672
 Frc consts  --      0.4066                 1.0019                 1.2479
 IR Inten    --     17.5799                11.4072                59.9384

                     28                     29                     30
                      A                      A                      A
 Frequencies --    723.4948               730.9780               768.3709
 Red. masses --      2.1406                 2.2052                 6.3603
 Frc consts  --      0.6602                 0.6942                 2.2124
 IR Inten    --     27.4810               213.6425               103.1322

                     31                     32                     33
                      A                      A                      A
 Frequencies --    807.6939               810.3446               875.5859
 Red. masses --      5.9909                 3.2457                 1.2512
 Frc consts  --      2.3027                 1.2557                 0.5652
 IR Inten    --     39.2787                67.6958                 0.3502

                     34                     35                     36
                      A                      A                      A
 Frequencies --    890.6193               940.7347               969.0029
 Red. masses --      5.7274                 2.4795                 2.2608
 Frc consts  --      2.6767                 1.2929                 1.2507
 IR Inten    --    104.6675                 6.5042                 5.6882

                     37                     38                     39
                      A                      A                      A
 Frequencies --    985.8703              1010.6166              1023.6893
 Red. masses --      1.1114                 1.3788                 1.1173
 Frc consts  --      0.6364                 0.8297                 0.6899
 IR Inten    --     94.0767                 0.7990                81.6521

                     40                     41                     42
                      A                      A                      A
 Frequencies --   1026.8404              1027.7391              1060.3995
 Red. masses --      5.7172                 1.3259                 2.3988
 Frc consts  --      3.5517                 0.8251                 1.5892
 IR Inten    --      1.4833                 0.5827                21.2844

                     43                     44                     45
                      A                      A                      A
 Frequencies --   1090.8135              1103.9077              1110.7024
 Red. masses --      4.5616                 4.6132                 1.5872
 Frc consts  --      3.1980                 3.3122                 1.1537
 IR Inten    --     35.7477               100.3648                10.0640

                     46                     47                     48
                      A                      A                      A
 Frequencies --   1182.0375              1182.5157              1199.0811
 Red. masses --      1.1346                 1.2830                 1.4338
 Frc consts  --      0.9340                 1.0571                 1.2146
 IR Inten    --      0.1256                 1.8826                29.1267

                     49                     50                     51
                      A                      A                      A
 Frequencies --   1208.0499              1215.3289              1239.5191
 Red. masses --      1.1200                 1.5645                 4.7573
 Frc consts  --      0.9630                 1.3615                 4.3064
 IR Inten    --      0.4069                13.2312               422.4965

                     52                     53                     54
                      A                      A                      A
 Frequencies --   1308.7454              1328.0148              1346.2520
 Red. masses --      4.5167                 5.3834                 1.3839
 Frc consts  --      4.5580                 5.5939                 1.4778
 IR Inten    --     37.3597               698.1212                40.4438

                     55                     56                     57
                      A                      A                      A
 Frequencies --   1358.0019              1442.0344              1465.6575
 Red. masses --      1.4395                 2.0127                 1.8053
 Frc consts  --      1.5641                 2.4660                 2.2849
 IR Inten    --      2.1985               409.9162               266.9522

                     58                     59                     60
                      A                      A                      A
 Frequencies --   1481.3048              1483.0525              1488.0356
 Red. masses --      1.2357                 1.0799                 1.9795
 Frc consts  --      1.5976                 1.3994                 2.5825
 IR Inten    --     37.4429                11.1135                 5.9690

                     61                     62                     63
                      A                      A                      A
 Frequencies --   1489.0201              1495.2174              1499.5062
 Red. masses --      1.0936                 1.0596                 1.0563
 Frc consts  --      1.4286                 1.3957                 1.3994
 IR Inten    --     49.7935                18.8654                27.2547

                     64                     65                     66
                      A                      A                      A
 Frequencies --   1546.1524              1632.6531              1646.8738
 Red. masses --      2.5053                 1.0963                 5.7515
 Frc consts  --      3.5287                 1.7217                 9.1907
 IR Inten    --     80.8961                80.8011                 1.9098

                     67                     68                     69
                      A                      A                      A
 Frequencies --   1671.6085              1716.4106              3067.0558
 Red. masses --      5.9985                11.2463                 1.0306
 Frc consts  --      9.8755                19.5210                 5.7121
 IR Inten    --     11.5334               957.6399                54.5502

                     70                     71                     72
                      A                      A                      A
 Frequencies --   3068.1023              3143.9944              3145.4699
 Red. masses --      1.0328                 1.1039                 1.1071
 Frc consts  --      5.7280                 6.4288                 6.4535
 IR Inten    --     34.3528                10.5011                31.8167

                     73                     74                     75
                      A                      A                      A
 Frequencies --   3164.1571              3178.6989              3190.2635
 Red. masses --      1.1054                 1.1059                 1.0858
 Frc consts  --      6.5206                 6.5834                 6.5110
 IR Inten    --     12.7300                19.9468                 4.4748

                     76                     77                     78
                      A                      A                      A
 Frequencies --   3194.9232              3203.7783              3210.5652
 Red. masses --      1.0880                 1.0916                 1.0952
 Frc consts  --      6.5434                 6.6016                 6.6512
 IR Inten    --      0.2369                17.8018                47.5570

                     79                     80                     81
                      A                      A                      A
 Frequencies --   3220.2899              3525.7494              3617.8283
 Red. masses --      1.0989                 1.0499                 1.0979
 Frc consts  --      6.7140                 7.6894                 8.4663
 IR Inten    --     17.4336                62.6974                76.4930

 - Thermochemistry -
 -------------------
 Temperature   298.150 Kelvin.  Pressure   1.00000 Atm.
 Atom     1 has atomic number  6 and mass  12.00000

 Molecular mass:   304.98182 amu.
 Principal axes and moments of inertia in atomic units:
                           1         2         3
     Eigenvalues --  3503.033486272.513897339.67529
           X            0.99829  -0.05090  -0.02858
           Y            0.05090   0.99870  -0.00062
           Z            0.02857  -0.00083   0.99959
 This molecule is an asymmetric top.
 Rotational symmetry number  1.
 Warning -- assumption of classical behavior for rotation
           may cause significant error
 Rotational temperatures (Kelvin)      0.02473     0.01381     0.01180
 Rotational constants (GHZ):           0.51519     0.28772     0.24589
    1 imaginary frequencies ignored.
 Zero-point vibrational energy     590237.5 (Joules/Mol)
                                  141.07015 (Kcal/Mol)
 Warning -- explicit consideration of  23 degrees of freedom as
           vibrations may cause significant error
 Vibrational temperatures:     35.90    72.30    88.03   103.63   112.12
          (Kelvin)            126.91   176.87   193.89   219.68   234.94
                              266.90   299.79   321.04   345.19   375.40
                              385.30   418.32   485.54   528.18   608.05
                              626.86   752.28   778.59   900.24   915.73
                              939.52  1040.95  1051.71  1105.51  1162.09
                             1165.91  1259.77  1281.40  1353.51  1394.18
                             1418.45  1454.05  1472.86  1477.39  1478.69
                             1525.68  1569.44  1588.28  1598.05  1700.69
                             1701.38  1725.21  1738.11  1748.59  1783.39
                             1882.99  1910.72  1936.96  1953.86  2074.77
                             2108.75  2131.27  2133.78  2140.95  2142.37
                             2151.28  2157.45  2224.57  2349.02  2369.48
                             2405.07  2469.53  4412.81  4414.31  4523.51
                             4525.63  4552.52  4573.44  4590.08  4596.78
                             4609.52  4619.29  4633.28  5072.77  5205.25

 Zero-point correction=                           0.224810 (Hartree/Particle)
 Thermal correction to Energy=                    0.241870
 Thermal correction to Enthalpy=                  0.242815
 Thermal correction to Gibbs Free Energy=         0.177824
 Sum of electronic and zero-point Energies=          -3666.385364
 Sum of electronic and thermal Energies=             -3666.368303
 Sum of electronic and thermal Enthalpies=           -3666.367359
 Sum of electronic and thermal Free Energies=        -3666.432350

                     E (Thermal)             CV                S
                      KCal/Mol        Cal/Mol-Kelvin    Cal/Mol-Kelvin
 Total                  151.776             60.042            136.784
 Electronic               0.000              0.000              0.000
 Translational            0.889              2.981             43.042
 Rotational               0.889              2.981             33.444
 Vibrational            149.999             54.080             60.298
 Vibration     1          0.593              1.985              6.195
 Vibration     2          0.595              1.977              4.807
 Vibration     3          0.597              1.973              4.419
 Vibration     4          0.598              1.967              4.097
 Vibration     5          0.599              1.964              3.942
 Vibration     6          0.601              1.957              3.699
 Vibration     7          0.610              1.930              3.054
 Vibration     8          0.613              1.919              2.877
 Vibration     9          0.619              1.900              2.638
 Vibration    10          0.623              1.887              2.511
 Vibration    11          0.632              1.860              2.272
 Vibration    12          0.642              1.828              2.058
 Vibration    13          0.649              1.806              1.934
 Vibration    14          0.657              1.779              1.804
 Vibration    15          0.669              1.744              1.656
 Vibration    16          0.673              1.732              1.610
 Vibration    17          0.687              1.691              1.470
 Vibration    18          0.718              1.601              1.224
 Vibration    19          0.740              1.540              1.092
 Vibration    20          0.785              1.421              0.883
 Vibration    21          0.796              1.392              0.840
 Vibration    22          0.878              1.199              0.603
 Vibration    23          0.896              1.159              0.563

 Optimization completed.
    -- Stationary point found.
 Normal termination of Gaussian 16 at Sun Feb 28 20:31:45 2021.
