 Gaussian 16, Revision A.03,
 Gaussian 16:  ES64L-G16RevA.03 25-Dec-2016

 ----------------------------------------------------------------------
 # wB97XD def2tzvp, opt=(ts, noeigen, calcfc, maxcycles=70, maxstep=1),
  freq=noraman, scrf=(iefpcm, solvent=water)
 ----------------------------------------------------------------------

 ------------------------
 0_iteration/TS-995-0.out
 ------------------------
 Symbolic Z-matrix:
 Charge =  0 Multiplicity = 1

 SCF Done:  E(RwB97XD) =  -1721.98158950     A.U. after   15 cycles
 SCF Done:  E(RwB97XD) =  -1721.98156152     A.U. after   10 cycles
 SCF Done:  E(RwB97XD) =  -1721.98154237     A.U. after   11 cycles
 SCF Done:  E(RwB97XD) =  -1721.98153480     A.U. after   11 cycles
 SCF Done:  E(RwB97XD) =  -1721.98152861     A.U. after   11 cycles
 SCF Done:  E(RwB97XD) =  -1721.98153529     A.U. after   11 cycles
 SCF Done:  E(RwB97XD) =  -1721.98157172     A.U. after   10 cycles
 SCF Done:  E(RwB97XD) =  -1721.98162692     A.U. after   10 cycles
 SCF Done:  E(RwB97XD) =  -1721.98170987     A.U. after   10 cycles
 SCF Done:  E(RwB97XD) =  -1721.98180910     A.U. after   10 cycles
 SCF Done:  E(RwB97XD) =  -1721.98684381     A.U. after   10 cycles
 SCF Done:  E(RwB97XD) =  -1721.98696314     A.U. after   10 cycles
 SCF Done:  E(RwB97XD) =  -1721.98705967     A.U. after   10 cycles
 SCF Done:  E(RwB97XD) =  -1721.98713889     A.U. after   10 cycles
 SCF Done:  E(RwB97XD) =  -1721.98720209     A.U. after   10 cycles
 SCF Done:  E(RwB97XD) =  -1721.98724591     A.U. after   10 cycles
 SCF Done:  E(RwB97XD) =  -1721.98727126     A.U. after   10 cycles
 SCF Done:  E(RwB97XD) =  -1721.98727975     A.U. after   10 cycles
 SCF Done:  E(RwB97XD) =  -1721.98727974     A.U. after    8 cycles
 Optimization completed.
    -- Stationary point found.
 Normal termination of Gaussian 16 at Sun Feb 28 00:14:20 2021.

 ---------------------------------------------------------------------
 #N Geom=AllCheck Guess=TCheck SCRF=Check GenChk RwB97XD/def2TZVP Freq
 ---------------------------------------------------------------------

 Structure from the checkpoint file:  "/beegfs/scratch/user/q/tla25/Gau-30671.chk"
 ------------------------
 0_iteration/TS-995-0.out
 ------------------------
 Charge =  0 Multiplicity = 1

                         Standard orientation:
 ---------------------------------------------------------------------
 Center     Atomic      Atomic             Coordinates (Angstroms)
 Number     Number       Type             X           Y           Z
 ---------------------------------------------------------------------
      1          6           0       -0.905702    0.196478   -0.101760
      2          6           0       -1.636810   -1.054481    0.050244
      3          8           0       -1.047493   -2.134809    0.180160
      4          6           0        0.468201    0.201448   -0.287494
      5          6           0        2.725380   -0.756045    1.420586
      6          1           0        3.223205    0.207245    1.323805
      7          1           0        2.988158   -1.198373    2.382929
      8          1           0        3.062452   -1.414758    0.623451
      9          7           0        1.283962   -0.564908    1.304817
     10          1           0        0.763585   -1.439647    1.312336
     11          1           0        0.919424    0.032983    2.037633
     12         17           0        1.290049    1.736670   -0.364601
     13         17           0        1.171800   -0.927633   -1.459550
     14         17           0       -1.730871    1.678433    0.329252
     15          7           0       -2.987393   -0.998279    0.063378
     16          1           0       -3.489421   -0.134444   -0.022172
     17          1           0       -3.496479   -1.843625    0.247210
 ---------------------------------------------------------------------

 SCF Done:  E(RwB97XD) =  -1721.98727974     A.U. after    1 cycles

 The electronic state is 1-A.
 Alpha  occ. eigenvalues -- -101.71872-101.70863-101.70067 -19.21254 -14.48586
 Alpha  occ. eigenvalues --  -14.44752 -10.45721 -10.39576 -10.32532 -10.31831
 Alpha  occ. eigenvalues --   -9.60452  -9.59444  -9.58583  -7.35136  -7.34215
 Alpha  occ. eigenvalues --   -7.34172  -7.34129  -7.33237  -7.33200  -7.33169
 Alpha  occ. eigenvalues --   -7.32371  -7.32335  -1.14036  -1.05392  -1.01454
 Alpha  occ. eigenvalues --   -1.00580  -0.95716  -0.93703  -0.83548  -0.78904
 Alpha  occ. eigenvalues --   -0.73238  -0.65697  -0.63544  -0.62539  -0.58766
 Alpha  occ. eigenvalues --   -0.57248  -0.56385  -0.54861  -0.53265  -0.50877
 Alpha  occ. eigenvalues --   -0.49488  -0.48280  -0.48019  -0.43841  -0.43172
 Alpha  occ. eigenvalues --   -0.42343  -0.41006  -0.39300  -0.39040  -0.35689
 Alpha  occ. eigenvalues --   -0.34833  -0.28207
 Alpha virt. eigenvalues --    0.02729   0.06488   0.07143   0.11074   0.13377
 Alpha virt. eigenvalues --    0.13764   0.15332   0.17379   0.17815   0.18165
 Alpha virt. eigenvalues --    0.18846   0.20387   0.21075   0.22452   0.25545

 Mulliken charges:
               1
     1  C   -0.208625
     2  C    0.341864
     3  O   -0.535050
     4  C    0.154212
     5  C   -0.270081
     6  H    0.148164
     7  H    0.154230
     8  H    0.149136
     9  N   -0.345470
    10  H    0.282138
    11  H    0.284946
    12  Cl  -0.034100
    13  Cl  -0.066225
    14  Cl  -0.141605
    15  N   -0.462513
    16  H    0.273650
    17  H    0.275330
 Sum of Mulliken charges =  -0.00000

 Dipole moment (field-independent basis, Debye):
    X=              1.5722    Y=              0.5371    Z=              4.2303  Tot=              4.5448
 Quadrupole moment (field-independent basis, Debye-Ang):
   XX=            -61.7411   YY=            -87.1684   ZZ=            -75.0255
   XY=             -0.5973   XZ=              5.5058   YZ=             -1.9180

  Exact polarizability: 189.153  -5.159 150.551   6.998   2.311 119.416
 Approx polarizability: 144.217  -6.228 133.422   3.356   2.815 106.743

 ******    1 imaginary frequencies (negative Signs) ******

                      1                      2                      3
                      A                      A                      A
 Frequencies --   -357.7397                57.8163                76.7748
 Red. masses --      6.7634                 5.7096                 5.0223
 Frc consts  --      0.5100                 0.0112                 0.0174
 IR Inten    --    839.4093                10.5980                 4.2613

                      4                      5                      6
                      A                      A                      A
 Frequencies --     93.7586               112.8365               158.8514
 Red. masses --      2.6790                 3.0670                 1.1778
 Frc consts  --      0.0139                 0.0230                 0.0175
 IR Inten    --      3.1419                16.0748               293.1316

                      7                      8                      9
                      A                      A                      A
 Frequencies --    164.8803               168.2268               206.4003
 Red. masses --      2.1735                 4.3691                 5.1141
 Frc consts  --      0.0348                 0.0728                 0.1284
 IR Inten    --     22.5924                 2.8975                23.5213

                     10                     11                     12
                      A                      A                      A
 Frequencies --    230.8801               241.4608               277.7423
 Red. masses --      6.3450                 4.4369                 8.0962
 Frc consts  --      0.1993                 0.1524                 0.3680
 IR Inten    --     18.3732                 1.8641                 1.5122

                     13                     14                     15
                      A                      A                      A
 Frequencies --    312.8224               346.8513               407.2476
 Red. masses --      7.4446                 4.9003                10.6371
 Frc consts  --      0.4292                 0.3473                 1.0394
 IR Inten    --      6.7802                13.2010                43.2755

                     16                     17                     18
                      A                      A                      A
 Frequencies --    451.1744               489.8733               556.7911
 Red. masses --      6.0716                 5.3774                 1.2177
 Frc consts  --      0.7282                 0.7603                 0.2224
 IR Inten    --     42.7491               154.9123                18.1659

                     19                     20                     21
                      A                      A                      A
 Frequencies --    608.7664               675.4143               779.4072
 Red. masses --      3.4738                 1.4512                 9.0436
 Frc consts  --      0.7585                 0.3900                 3.2368
 IR Inten    --     58.7149                11.2345                59.2218

                     22                     23                     24
                      A                      A                      A
 Frequencies --    791.8545               870.9173              1029.1353
 Red. masses --      5.8977                 5.2433                 1.1852
 Frc consts  --      2.1788                 2.3432                 0.7396
 IR Inten    --    215.7087               110.9416                11.9782

                     25                     26                     27
                      A                      A                      A
 Frequencies --   1043.2518              1066.2900              1081.5928
 Red. masses --      1.2389                 2.2177                 4.1172
 Frc consts  --      0.7944                 1.4856                 2.8378
 IR Inten    --     71.9391                34.8561               176.7695

                     28                     29                     30
                      A                      A                      A
 Frequencies --   1104.1421              1212.9942              1343.5086
 Red. masses --      3.0642                 1.3975                 1.3145
 Frc consts  --      2.2010                 1.2115                 1.3979
 IR Inten    --     23.4019                35.4585                 7.1714

                     31                     32                     33
                      A                      A                      A
 Frequencies --   1393.9773              1403.3453              1458.4379
 Red. masses --      4.3697                 7.7056                 1.1980
 Frc consts  --      5.0027                 8.9410                 1.5014
 IR Inten    --    997.4963               559.4931                23.4730

                     34                     35                     36
                      A                      A                      A
 Frequencies --   1491.2186              1499.6026              1603.7387
 Red. masses --      1.0421                 1.0300                 1.4056
 Frc consts  --      1.3653                 1.3646                 2.1300
 IR Inten    --     21.0938                20.6198               265.6917

                     37                     38                     39
                      A                      A                      A
 Frequencies --   1647.1833              1666.6731              3066.3805
 Red. masses --      1.0972                 5.0578                 1.0362
 Frc consts  --      1.7540                 8.2778                 5.7403
 IR Inten    --     69.4579               593.1847                47.8684

                     40                     41                     42
                      A                      A                      A
 Frequencies --   3144.5036              3174.4545              3474.9514
 Red. masses --      1.1015                 1.1054                 1.0567
 Frc consts  --      6.4169                 6.5632                 7.5177
 IR Inten    --     12.3151                10.5481                61.1540

                     43                     44                     45
                      A                      A                      A
 Frequencies --   3583.3864              3634.9919              3763.8122
 Red. masses --      1.0925                 1.0453                 1.1058
 Frc consts  --      8.2650                 8.1375                 9.2299
 IR Inten    --     67.2763               118.7904               101.3546

 - Thermochemistry -
 -------------------
 Temperature   298.150 Kelvin.  Pressure   1.00000 Atm.
 Atom     1 has atomic number  6 and mass  12.00000

 Molecular mass:   203.96240 amu.
 Principal axes and moments of inertia in atomic units:
                           1         2         3
     Eigenvalues --  1787.781712539.531763290.83157
           X            0.99907   0.00385   0.04293
           Y           -0.00236   0.99940  -0.03464
           Z           -0.04304   0.03451   0.99848
 This molecule is an asymmetric top.
 Rotational symmetry number  1.
 Warning -- assumption of classical behavior for rotation
           may cause significant error
 Rotational temperatures (Kelvin)      0.04845     0.03411     0.02632
 Rotational constants (GHZ):           1.00949     0.71066     0.54841
    1 imaginary frequencies ignored.
 Zero-point vibrational energy     310839.6 (Joules/Mol)
                                   74.29244 (Kcal/Mol)
 Warning -- explicit consideration of  18 degrees of freedom as
           vibrations may cause significant error
 Vibrational temperatures:     83.18   110.46   134.90   162.35   228.55
          (Kelvin)            237.23   242.04   296.96   332.19   347.41
                              399.61   450.08   499.04   585.94   649.14
                              704.82   801.10   875.88   971.77  1121.39
                             1139.30  1253.06  1480.70  1501.01  1534.15
                             1556.17  1588.61  1745.23  1933.01  2005.62
                             2019.10  2098.37  2145.53  2157.59  2307.42
                             2369.93  2397.97  4411.84  4524.24  4567.33
                             4999.68  5155.69  5229.94  5415.29

 Zero-point correction=                           0.118393 (Hartree/Particle)
 Thermal correction to Energy=                    0.130614
 Thermal correction to Enthalpy=                  0.131558
 Thermal correction to Gibbs Free Energy=         0.079114
 Sum of electronic and zero-point Energies=          -1721.868887
 Sum of electronic and thermal Energies=             -1721.856666
 Sum of electronic and thermal Enthalpies=           -1721.855721
 Sum of electronic and thermal Free Energies=        -1721.908166

                     E (Thermal)             CV                S
                      KCal/Mol        Cal/Mol-Kelvin    Cal/Mol-Kelvin
 Total                   81.962             41.266            110.378
 Electronic               0.000              0.000              0.000
 Translational            0.889              2.981             41.843
 Rotational               0.889              2.981             31.080
 Vibrational             80.184             35.304             37.455
 Vibration     1          0.596              1.974              4.530
 Vibration     2          0.599              1.965              3.972
 Vibration     3          0.603              1.954              3.580
 Vibration     4          0.607              1.939              3.220
 Vibration     5          0.621              1.893              2.563
 Vibration     6          0.623              1.886              2.493
 Vibration     7          0.625              1.882              2.455
 Vibration     8          0.641              1.831              2.075
 Vibration     9          0.653              1.794              1.872
 Vibration    10          0.658              1.777              1.792
 Vibration    11          0.679              1.715              1.548
 Vibration    12          0.701              1.649              1.347
 Vibration    13          0.725              1.582              1.180
 Vibration    14          0.772              1.454              0.936
 Vibration    15          0.810              1.358              0.792
 Vibration    16          0.846              1.272              0.684
 Vibration    17          0.912              1.125              0.530
 Vibration    18          0.968              1.013              0.435

 Optimization completed.
    -- Stationary point found.
 Normal termination of Gaussian 16 at Sun Feb 28 00:26:36 2021.
