 Gaussian 16, Revision A.03,
 Gaussian 16:  ES64L-G16RevA.03 25-Dec-2016

 ----------------------------------------------------------------------
 # wB97XD def2tzvp, opt=(ts, noeigen, calcfc, maxcycles=70, maxstep=8),
  freq=noraman, scrf=(iefpcm, solvent=water)
 ----------------------------------------------------------------------

 ------------------------
 1_iteration/TS-975-1.out
 ------------------------
 Symbolic Z-matrix:
 Charge =  0 Multiplicity = 1

 SCF Done:  E(RwB97XD) =  -1493.42836336     A.U. after   14 cycles
 SCF Done:  E(RwB97XD) =  -1493.42852621     A.U. after   11 cycles
 SCF Done:  E(RwB97XD) =  -1493.42854448     A.U. after   11 cycles
 SCF Done:  E(RwB97XD) =  -1493.42854666     A.U. after   10 cycles
 SCF Done:  E(RwB97XD) =  -1493.42854667     A.U. after    8 cycles
 SCF Done:  E(RwB97XD) =  -1493.42854663     A.U. after    8 cycles
 SCF Done:  E(RwB97XD) =  -1493.42854660     A.U. after    6 cycles
 Optimization completed.
    -- Stationary point found.
 Normal termination of Gaussian 16 at Sun Feb 28 14:54:42 2021.

 ---------------------------------------------------------------------
 #N Geom=AllCheck Guess=TCheck SCRF=Check GenChk RwB97XD/def2TZVP Freq
 ---------------------------------------------------------------------

 Structure from the checkpoint file:  "/beegfs/scratch/user/q/tla25/Gau-74681.chk"
 ------------------------
 1_iteration/TS-975-1.out
 ------------------------
 Charge =  0 Multiplicity = 1

                         Standard orientation:
 ---------------------------------------------------------------------
 Center     Atomic      Atomic             Coordinates (Angstroms)
 Number     Number       Type             X           Y           Z
 ---------------------------------------------------------------------
      1          6           0       -1.381500   -0.882741   -0.762084
      2          6           0        0.053025   -1.063327   -0.713669
      3          8           0        0.560166   -2.125555   -1.079203
      4          6           0       -2.175529    0.127809   -0.257004
      5          6           0       -2.483372   -1.198637    2.134745
      6          1           0       -1.816896   -1.886673    1.613812
      7          1           0       -2.280316   -1.234639    3.203389
      8          1           0       -3.515732   -1.483837    1.948478
      9          7           0       -2.250794    0.142207    1.609050
     10          1           0       -2.958607    0.805308    1.908231
     11          1           0       -1.346460    0.497292    1.901979
     12         17           0       -3.894533   -0.045286   -0.611652
     13         17           0       -1.699442    1.856125   -0.433404
     14          1           0       -1.907337   -1.765643   -1.092930
     15          7           0        0.827766   -0.028572   -0.231398
     16          6           0        2.217764    0.031752   -0.081361
     17          6           0        2.781275    1.296595    0.112507
     18          6           0        4.143124    1.442556    0.304219
     19          6           0        4.975777    0.331357    0.304275
     20          6           0        4.418742   -0.923681    0.114521
     21          6           0        3.053340   -1.085848   -0.075248
     22          1           0        0.363290    0.857650   -0.122761
     23          1           0        2.141032    2.171501    0.113108
     24          1           0        4.554958    2.433039    0.452135
     25          1           0        6.041980    0.443846    0.451479
     26          1           0        5.053289   -1.801564    0.115820
     27          1           0        2.632349   -2.066574   -0.222119
 ---------------------------------------------------------------------

 SCF Done:  E(RwB97XD) =  -1493.42854660     A.U. after    1 cycles

 The electronic state is 1-A.
 Alpha  occ. eigenvalues -- -101.71616-101.71515 -19.20581 -14.50922 -14.46354
 Alpha  occ. eigenvalues --  -10.45811 -10.39007 -10.33801 -10.32396 -10.29058
 Alpha  occ. eigenvalues --  -10.28902 -10.28867 -10.28284 -10.28249 -10.26561
 Alpha  occ. eigenvalues --   -9.60222  -9.60099  -7.34857  -7.34776  -7.34006
 Alpha  occ. eigenvalues --   -7.33966  -7.33856  -7.33833  -1.13600  -1.07018
 Alpha  occ. eigenvalues --   -1.04001  -1.00752  -0.95516  -0.93974  -0.86898
 Alpha  occ. eigenvalues --   -0.85125  -0.83399  -0.80100  -0.73895  -0.71638
 Alpha  occ. eigenvalues --   -0.69194  -0.65815  -0.65024  -0.62903  -0.59931
 Alpha  occ. eigenvalues --   -0.59361  -0.58202  -0.56181  -0.55591  -0.53643
 Alpha  occ. eigenvalues --   -0.52413  -0.52076  -0.51287  -0.50026  -0.49039
 Alpha  occ. eigenvalues --   -0.48909  -0.47510  -0.46571  -0.44735  -0.43508
 Alpha  occ. eigenvalues --   -0.42705  -0.42135  -0.40317  -0.40155  -0.39455
 Alpha  occ. eigenvalues --   -0.34405  -0.33595  -0.30841  -0.28292
 Alpha virt. eigenvalues --    0.03429   0.04971   0.05379   0.07391   0.08577
 Alpha virt. eigenvalues --    0.10111   0.13257   0.14191   0.14683   0.16067
 Alpha virt. eigenvalues --    0.16562   0.17223   0.18028   0.18169   0.18914

 Mulliken charges:
               1
     1  C   -0.493083
     2  C    0.392765
     3  O   -0.531259
     4  C    0.164786
     5  C   -0.289378
     6  H    0.161009
     7  H    0.168246
     8  H    0.162121
     9  N   -0.289502
    10  H    0.302717
    11  H    0.290890
    12  Cl  -0.066889
    13  Cl  -0.089324
    14  H    0.152531
    15  N   -0.261445
    16  C    0.291110
    17  C   -0.299755
    18  C   -0.102269
    19  C   -0.197096
    20  C   -0.101606
    21  C   -0.298846
    22  H    0.212088
    23  H    0.142255
    24  H    0.143301
    25  H    0.140614
    26  H    0.141396
    27  H    0.154623
 Sum of Mulliken charges =  -0.00000

 Dipole moment (field-independent basis, Debye):
    X=             -4.7525    Y=              4.5870    Z=              8.2606  Tot=             10.5765
 Quadrupole moment (field-independent basis, Debye-Ang):
   XX=            -91.5159   YY=           -105.5707   ZZ=            -98.9903
   XY=              4.7952   XZ=            -11.1274   YZ=             -4.3677

  Exact polarizability: 305.695  -4.450 233.292  -0.194  13.756 169.942
 Approx polarizability: 224.159  -4.326 203.113   1.633  12.963 147.641

 ******    1 imaginary frequencies (negative Signs) ******

                      1                      2                      3
                      A                      A                      A
 Frequencies --   -368.3024                18.8890                25.4171
 Red. masses --      5.6661                 3.9311                 5.4174
 Frc consts  --      0.4528                 0.0008                 0.0021
 IR Inten    --    792.8351                 1.4460                 3.4737

                      4                      5                      6
                      A                      A                      A
 Frequencies --     65.2440                72.4029                81.9114
 Red. masses --      6.3905                 2.9460                 4.7978
 Frc consts  --      0.0160                 0.0091                 0.0190
 IR Inten    --      3.8448                 0.8566                 1.3877

                      7                      8                      9
                      A                      A                      A
 Frequencies --    109.0665               157.8898               182.1406
 Red. masses --      2.8037                 1.9163                 3.0777
 Frc consts  --      0.0196                 0.0281                 0.0602
 IR Inten    --     18.4065                 0.8491                11.4696

                     10                     11                     12
                      A                      A                      A
 Frequencies --    193.8911               234.4310               244.5119
 Red. masses --      5.1601                 5.6726                 5.1015
 Frc consts  --      0.1143                 0.1837                 0.1797
 IR Inten    --      9.1117                 1.4206                 2.4202

                     13                     14                     15
                      A                      A                      A
 Frequencies --    265.4871               310.7773               332.9366
 Red. masses --      7.2429                 5.1407                 5.0241
 Frc consts  --      0.3008                 0.2925                 0.3281
 IR Inten    --      8.7017                12.4909                33.9746

                     16                     17                     18
                      A                      A                      A
 Frequencies --    358.8689               409.1246               423.9942
 Red. masses --      6.0980                13.1803                 2.9878
 Frc consts  --      0.4627                 1.2998                 0.3165
 IR Inten    --      3.9288                15.1986                 0.4272

                     19                     20                     21
                      A                      A                      A
 Frequencies --    505.5943               515.3235               529.3677
 Red. masses --      8.3255                 2.6647                 2.8683
 Frc consts  --      1.2539                 0.4169                 0.4736
 IR Inten    --     46.1213                22.5429                34.5769

                     22                     23                     24
                      A                      A                      A
 Frequencies --    578.7304               607.6589               635.5550
 Red. masses --      1.2300                 2.3643                 5.9875
 Frc consts  --      0.2427                 0.5144                 1.4250
 IR Inten    --    146.4541               108.1805                 6.1426

                     25                     26                     27
                      A                      A                      A
 Frequencies --    678.3849               695.6871               718.9450
 Red. masses --      1.8077                 3.2914                 1.9058
 Frc consts  --      0.4902                 0.9386                 0.5804
 IR Inten    --     31.2335                41.3239                57.7484

                     28                     29                     30
                      A                      A                      A
 Frequencies --    737.3976               783.6118               791.2192
 Red. masses --      3.0061                 1.8874                 4.5943
 Frc consts  --      0.9631                 0.6828                 1.6946
 IR Inten    --     72.7695                49.0817               141.0651

                     31                     32                     33
                      A                      A                      A
 Frequencies --    856.7374               862.4290               903.8904
 Red. masses --      3.7574                 1.2886                 4.6913
 Frc consts  --      1.6249                 0.5647                 2.2583
 IR Inten    --    115.6241                 1.8155                59.6669

                     34                     35                     36
                      A                      A                      A
 Frequencies --    934.4306               995.2884              1002.7048
 Red. masses --      1.4883                 4.7472                 1.3535
 Frc consts  --      0.7656                 2.7707                 0.8017
 IR Inten    --     12.3264                27.3070                 0.2613

                     37                     38                     39
                      A                      A                      A
 Frequencies --   1018.6396              1021.2774              1025.4369
 Red. masses --      1.2887                 4.9325                 1.1894
 Frc consts  --      0.7879                 3.0312                 0.7369
 IR Inten    --      0.6095                 4.7932                25.1366

                     40                     41                     42
                      A                      A                      A
 Frequencies --   1064.1880              1065.1638              1083.2965
 Red. masses --      1.5074                 1.7565                 2.9929
 Frc consts  --      1.0058                 1.1742                 2.0694
 IR Inten    --     21.4321                24.3956                90.8286

                     43                     44                     45
                      A                      A                      A
 Frequencies --   1122.5012              1183.0422              1211.0227
 Red. masses --      1.5269                 1.1216                 1.1330
 Frc consts  --      1.1336                 0.9249                 0.9790
 IR Inten    --     10.9763                 4.4638                22.0758

                     46                     47                     48
                      A                      A                      A
 Frequencies --   1242.9430              1253.6747              1279.8909
 Red. masses --      1.4333                 1.6042                 2.6975
 Frc consts  --      1.3046                 1.4856                 2.6035
 IR Inten    --    101.2031               559.3665               478.6291

                     49                     50                     51
                      A                      A                      A
 Frequencies --   1287.5387              1343.0896              1349.0275
 Red. masses --      3.1112                 1.3655                 3.5195
 Frc consts  --      3.0388                 1.4512                 3.7737
 IR Inten    --     69.8091                27.8159               519.3128

                     52                     53                     54
                      A                      A                      A
 Frequencies --   1363.3863              1444.9265              1466.8427
 Red. masses --      1.5430                 1.7908                 1.7678
 Frc consts  --      1.6899                 2.2029                 2.2410
 IR Inten    --     10.3649               493.1039               390.4853

                     55                     56                     57
                      A                      A                      A
 Frequencies --   1481.6499              1494.5376              1498.3269
 Red. masses --      2.1513                 1.0487                 1.0397
 Frc consts  --      2.7825                 1.3801                 1.3752
 IR Inten    --    192.4368                19.4076                 9.2693

                     58                     59                     60
                      A                      A                      A
 Frequencies --   1546.9156              1577.3056              1638.5876
 Red. masses --      2.4203                 2.0917                 1.0935
 Frc consts  --      3.4123                 3.0661                 1.7298
 IR Inten    --    199.5875               527.2738                89.3582

                     61                     62                     63
                      A                      A                      A
 Frequencies --   1659.6027              1673.3100              1684.6284
 Red. masses --      6.7952                 4.0326                 4.9396
 Frc consts  --     11.0271                 6.6525                 8.2595
 IR Inten    --    256.8138                74.3418               766.5643

                     64                     65                     66
                      A                      A                      A
 Frequencies --   3075.6189              3157.2796              3181.3654
 Red. masses --      1.0336                 1.1040                 1.1062
 Frc consts  --      5.7604                 6.4840                 6.5965
 IR Inten    --     24.1154                 2.6578                 7.3242

                     67                     68                     69
                      A                      A                      A
 Frequencies --   3185.1555              3195.9326              3206.1683
 Red. masses --      1.0885                 1.0882                 1.0929
 Frc consts  --      6.5066                 6.5485                 6.6193
 IR Inten    --     14.4404                 3.3426                29.0042

                     70                     71                     72
                      A                      A                      A
 Frequencies --   3221.3168              3233.5237              3270.4554
 Red. masses --      1.0979                 1.0881                 1.0926
 Frc consts  --      6.7127                 6.7029                 6.8854
 IR Inten    --     23.0166                 1.2834                 3.0490

                     73                     74                     75
                      A                      A                      A
 Frequencies --   3512.9078              3595.7959              3627.0970
 Red. masses --      1.0507                 1.0971                 1.0765
 Frc consts  --      7.6394                 8.3577                 8.3442
 IR Inten    --     65.6702                76.9017               143.5998

 - Thermochemistry -
 -------------------
 Temperature   298.150 Kelvin.  Pressure   1.00000 Atm.
 Atom     1 has atomic number  6 and mass  12.00000

 Molecular mass:   246.03267 amu.
 Principal axes and moments of inertia in atomic units:
                           1         2         3
     Eigenvalues --  1807.835667762.201548344.97578
           X            0.99988   0.01082  -0.01143
           Y           -0.01106   0.99972  -0.02095
           Z            0.01120   0.02107   0.99972
 This molecule is an asymmetric top.
 Rotational symmetry number  1.
 Warning -- assumption of classical behavior for rotation
           may cause significant error
 Rotational temperatures (Kelvin)      0.04791     0.01116     0.01038
 Rotational constants (GHZ):           0.99829     0.23250     0.21627
    1 imaginary frequencies ignored.
 Zero-point vibrational energy     552455.3 (Joules/Mol)
                                  132.03998 (Kcal/Mol)
 Warning -- explicit consideration of  22 degrees of freedom as
           vibrations may cause significant error
 Vibrational temperatures:     27.18    36.57    93.87   104.17   117.85
          (Kelvin)            156.92   227.17   262.06   278.97   337.29
                              351.80   381.98   447.14   479.02   516.33
                              588.64   610.03   727.44   741.44   761.64
                              832.66   874.29   914.42   976.04  1000.94
                             1034.40  1060.95  1127.44  1138.39  1232.65
                             1240.84  1300.50  1344.44  1432.00  1442.67
                             1465.60  1469.39  1475.38  1531.13  1532.53
                             1558.62  1615.03  1702.13  1742.39  1788.32
                             1803.76  1841.48  1852.48  1932.41  1940.95
                             1961.61  2078.93  2110.46  2131.76  2150.31
                             2155.76  2225.67  2269.39  2357.56  2387.80
                             2407.52  2423.80  4425.13  4542.62  4577.28
                             4582.73  4598.23  4612.96  4634.76  4652.32
                             4705.46  5054.29  5173.55  5218.58

 Zero-point correction=                           0.210419 (Hartree/Particle)
 Thermal correction to Energy=                    0.225480
 Thermal correction to Enthalpy=                  0.226424
 Thermal correction to Gibbs Free Energy=         0.165476
 Sum of electronic and zero-point Energies=          -1493.218128
 Sum of electronic and thermal Energies=             -1493.203067
 Sum of electronic and thermal Enthalpies=           -1493.202123
 Sum of electronic and thermal Free Energies=        -1493.263070

                     E (Thermal)             CV                S
                      KCal/Mol        Cal/Mol-Kelvin    Cal/Mol-Kelvin
 Total                  141.491             54.867            128.275
 Electronic               0.000              0.000              0.000
 Translational            0.889              2.981             42.402
 Rotational               0.889              2.981             33.126
 Vibrational            139.713             48.905             52.747
 Vibration     1          0.593              1.986              6.748
 Vibration     2          0.593              1.985              6.158
 Vibration     3          0.597              1.971              4.292
 Vibration     4          0.599              1.967              4.087
 Vibration     5          0.600              1.962              3.845
 Vibration     6          0.606              1.942              3.285
 Vibration     7          0.621              1.894              2.575
 Vibration     8          0.630              1.864              2.306
 Vibration     9          0.635              1.848              2.190
 Vibration    10          0.654              1.788              1.845
 Vibration    11          0.660              1.772              1.770
 Vibration    12          0.671              1.736              1.625
 Vibration    13          0.700              1.653              1.358
 Vibration    14          0.715              1.610              1.246
 Vibration    15          0.734              1.557              1.127
 Vibration    16          0.773              1.450              0.930
 Vibration    17          0.786              1.418              0.879
 Vibration    18          0.861              1.238              0.644
 Vibration    19          0.870              1.216              0.621
 Vibration    20          0.884              1.185              0.589
 Vibration    21          0.935              1.077              0.488
 Vibration    22          0.966              1.016              0.437

 Optimization completed.
    -- Stationary point found.
 Normal termination of Gaussian 16 at Sun Feb 28 15:40:50 2021.
