 Gaussian 16, Revision A.03,
 Gaussian 16:  ES64L-G16RevA.03 25-Dec-2016

 ----------------------------------------------------------------------
 # wB97XD def2tzvp, opt=(ts, noeigen, calcfc, maxcycles=70, maxstep=5),
  freq=noraman, scrf=(iefpcm, solvent=water)
 ----------------------------------------------------------------------

 ------------------------
 2_iteration/TS-903-2.out
 ------------------------
 Symbolic Z-matrix:
 Charge =  0 Multiplicity = 1

 SCF Done:  E(RwB97XD) =  -1112.46026426     A.U. after   14 cycles
 SCF Done:  E(RwB97XD) =  -1112.46026451     A.U. after    7 cycles
 Optimization completed on the basis of negligible forces.
    -- Stationary point found.
 Normal termination of Gaussian 16 at Sun Feb 28 22:37:29 2021.

 ---------------------------------------------------------------------
 #N Geom=AllCheck Guess=TCheck SCRF=Check GenChk RwB97XD/def2TZVP Freq
 ---------------------------------------------------------------------

 Structure from the checkpoint file:  "/beegfs/scratch/user/q/tla25/Gau-102562.chk"
 ------------------------
 2_iteration/TS-903-2.out
 ------------------------
 Charge =  0 Multiplicity = 1

                         Standard orientation:
 ---------------------------------------------------------------------
 Center     Atomic      Atomic             Coordinates (Angstroms)
 Number     Number       Type             X           Y           Z
 ---------------------------------------------------------------------
      1          6           0        1.227537    0.460096   -0.239721
      2          6           0       -0.029300   -0.247801   -0.232360
      3          8           0       -0.188844   -1.467303   -0.366141
      4          6           0        2.436461   -0.240281   -0.294352
      5          6           0        2.427042   -0.591723    2.442232
      6          1           0        2.756772   -0.218037    3.410149
      7          1           0        1.412490   -0.241497    2.244323
      8          1           0        2.436270   -1.678652    2.452047
      9          7           0        3.286336   -0.106460    1.367058
     10          1           0        3.479093    0.883432    1.470760
     11          1           0        4.177852   -0.589300    1.335865
     12         17           0        3.784293    0.596324   -1.221835
     13          6           0        2.548053   -1.718439   -0.542643
     14          1           0        1.949621   -2.271835    0.174786
     15          1           0        2.163791   -1.949212   -1.534704
     16          1           0        3.589043   -2.032935   -0.487271
     17          6           0        1.244515    1.960823   -0.051037
     18          1           0        2.259318    2.350767   -0.096646
     19          1           0        0.682143    2.492486   -0.825292
     20          1           0        0.839787    2.267223    0.921181
     21          7           0       -1.143499    0.574218   -0.070673
     22          6           0       -2.497473    0.243154   -0.053774
     23          6           0       -3.012459   -1.011481   -0.390888
     24          6           0       -4.383382   -1.228322   -0.357920
     25          6           0       -5.266629   -0.222608    0.001607
     26          6           0       -4.757017    1.026310    0.333169
     27          6           0       -3.394172    1.256765    0.308050
     28          1           0       -0.959361    1.544256    0.110281
     29          1           0       -2.337075   -1.801692   -0.672269
     30          1           0       -4.761575   -2.208438   -0.623020
     31          1           0       -6.333034   -0.405649    0.022757
     32          1           0       -5.425017    1.830340    0.616613
     33          1           0       -3.011248    2.236376    0.571873
 ---------------------------------------------------------------------

 SCF Done:  E(RwB97XD) =  -1112.46026451     A.U. after    1 cycles

 The electronic state is 1-A.
 Alpha  occ. eigenvalues -- -101.68683 -19.19263 -14.49663 -14.45424 -10.39982
 Alpha  occ. eigenvalues --  -10.37652 -10.33471 -10.31959 -10.28824 -10.28649
 Alpha  occ. eigenvalues --  -10.28516 -10.28170 -10.27956 -10.27788 -10.27619
 Alpha  occ. eigenvalues --  -10.25970  -9.57302  -7.31887  -7.31111  -7.31077
 Alpha  occ. eigenvalues --   -1.12344  -1.05359  -1.03083  -0.96271  -0.95056
 Alpha  occ. eigenvalues --   -0.88064  -0.84831  -0.84621  -0.82822  -0.79460
 Alpha  occ. eigenvalues --   -0.75723  -0.73105  -0.71032  -0.67245  -0.63956
 Alpha  occ. eigenvalues --   -0.63546  -0.61834  -0.58740  -0.57946  -0.56134
 Alpha  occ. eigenvalues --   -0.55785  -0.53436  -0.53249  -0.51899  -0.51695
 Alpha  occ. eigenvalues --   -0.51020  -0.49717  -0.49637  -0.48921  -0.48366
 Alpha  occ. eigenvalues --   -0.46787  -0.46110  -0.45730  -0.44516  -0.44280
 Alpha  occ. eigenvalues --   -0.44034  -0.42449  -0.39228  -0.38971  -0.38657
 Alpha  occ. eigenvalues --   -0.33562  -0.32571  -0.29801  -0.26170
 Alpha virt. eigenvalues --    0.04813   0.05637   0.07242   0.09307   0.09983
 Alpha virt. eigenvalues --    0.12134   0.13584   0.14000   0.15152   0.15770
 Alpha virt. eigenvalues --    0.16382   0.16747   0.17826   0.17991   0.18565

 Mulliken charges:
               1
     1  C   -0.244583
     2  C    0.393107
     3  O   -0.561651
     4  C    0.119546
     5  C   -0.308578
     6  H    0.163440
     7  H    0.159074
     8  H    0.163614
     9  N   -0.282097
    10  H    0.286967
    11  H    0.292809
    12  Cl  -0.171250
    13  C   -0.342637
    14  H    0.145746
    15  H    0.142129
    16  H    0.140378
    17  C   -0.479126
    18  H    0.142793
    19  H    0.142740
    20  H    0.136312
    21  N   -0.265465
    22  C    0.296555
    23  C   -0.299719
    24  C   -0.111357
    25  C   -0.202351
    26  C   -0.103050
    27  C   -0.312981
    28  H    0.244817
    29  H    0.156680
    30  H    0.138899
    31  H    0.138578
    32  H    0.141205
    33  H    0.139455
 Sum of Mulliken charges =  -0.00000

 Dipole moment (field-independent basis, Debye):
    X=              6.4118    Y=              2.7091    Z=              6.3725  Tot=              9.4371
 Quadrupole moment (field-independent basis, Debye-Ang):
   XX=            -85.7570   YY=            -99.4215   ZZ=           -100.5697
   XY=             -7.2258   XZ=             17.0060   YZ=              1.9164

  Exact polarizability: 351.390   3.347 232.619  -2.430   9.946 184.387
 Approx polarizability: 248.256   3.937 200.803  -2.785   8.899 158.413

 ******    1 imaginary frequencies (negative Signs) ******

                      1                      2                      3
                      A                      A                      A
 Frequencies --   -381.6515                15.4385                32.2453
 Red. masses --      5.7119                 3.7450                 5.5704
 Frc consts  --      0.4902                 0.0005                 0.0034
 IR Inten    --    938.5328                 3.4583                 3.2925

                      4                      5                      6
                      A                      A                      A
 Frequencies --     53.1945                80.8115                96.3454
 Red. masses --      5.0827                 4.7227                 2.3172
 Frc consts  --      0.0085                 0.0182                 0.0127
 IR Inten    --      9.1017                 2.6825                 2.5832

                      7                      8                      9
                      A                      A                      A
 Frequencies --    100.4866               156.4105               186.7128
 Red. masses --      3.8909                 2.0991                 3.4128
 Frc consts  --      0.0231                 0.0303                 0.0701
 IR Inten    --      0.4153                 4.5659                15.2328

                     10                     11                     12
                      A                      A                      A
 Frequencies --    197.8383               219.1548               239.3892
 Red. masses --      1.2706                 1.7905                 2.4974
 Frc consts  --      0.0293                 0.0507                 0.0843
 IR Inten    --      6.5330                10.3875                 1.5221

                     13                     14                     15
                      A                      A                      A
 Frequencies --    250.7398               266.7368               285.2449
 Red. masses --      4.1610                 2.9944                 1.1595
 Frc consts  --      0.1541                 0.1255                 0.0556
 IR Inten    --      6.7503                14.1438                 0.1974

                     16                     17                     18
                      A                      A                      A
 Frequencies --    303.0092               326.0813               343.5238
 Red. masses --      2.8799                 3.8728                 3.6529
 Frc consts  --      0.1558                 0.2426                 0.2540
 IR Inten    --     13.1328                 2.0022                24.5647

                     19                     20                     21
                      A                      A                      A
 Frequencies --    359.1664               392.0548               425.0344
 Red. masses --      5.4314                 4.1229                 2.9911
 Frc consts  --      0.4128                 0.3734                 0.3184
 IR Inten    --      7.7298                17.0801                 0.1300

                     22                     23                     24
                      A                      A                      A
 Frequencies --    463.9334               493.3399               510.7226
 Red. masses --      3.2080                 4.0577                 1.1871
 Frc consts  --      0.4068                 0.5819                 0.1824
 IR Inten    --      7.8730               157.6036               133.8975

                     25                     26                     27
                      A                      A                      A
 Frequencies --    528.4758               577.1330               622.6986
 Red. masses --      2.7990                 4.7578                 4.4935
 Frc consts  --      0.4606                 0.9337                 1.0266
 IR Inten    --     12.8509               125.0104                14.3291

                     28                     29                     30
                      A                      A                      A
 Frequencies --    639.1435               655.7843               718.8270
 Red. masses --      5.9614                 3.2907                 1.8870
 Frc consts  --      1.4348                 0.8338                 0.5745
 IR Inten    --      2.4673                87.2696                63.2588

                     31                     32                     33
                      A                      A                      A
 Frequencies --    728.7888               775.0245               782.5772
 Red. masses --      1.6632                 5.8712                 1.9064
 Frc consts  --      0.5205                 2.0778                 0.6879
 IR Inten    --    129.9837                29.3795               113.2804

                     34                     35                     36
                      A                      A                      A
 Frequencies --    856.4460               859.6766               885.0442
 Red. masses --      3.7664                 1.2917                 4.7164
 Frc consts  --      1.6277                 0.5625                 2.1767
 IR Inten    --    133.2352                 3.3376                54.7771

                     37                     38                     39
                      A                      A                      A
 Frequencies --    929.3182               976.3065               998.9379
 Red. masses --      1.4817                 1.8518                 1.3419
 Frc consts  --      0.7539                 1.0400                 0.7889
 IR Inten    --     15.5093               148.3484                 0.0547

                     40                     41                     42
                      A                      A                      A
 Frequencies --   1013.7423              1014.5260              1018.7593
 Red. masses --      1.2777                 1.0909                 5.5328
 Frc consts  --      0.7736                 0.6615                 3.3833
 IR Inten    --      1.5983                22.7320                 3.3136

                     43                     44                     45
                      A                      A                      A
 Frequencies --   1045.9517              1053.5284              1061.2245
 Red. masses --      1.3514                 1.7194                 1.9185
 Frc consts  --      0.8711                 1.1244                 1.2730
 IR Inten    --     48.9072                75.1481                40.1099

                     46                     47                     48
                      A                      A                      A
 Frequencies --   1065.9118              1081.2786              1089.1667
 Red. masses --      1.3941                 2.0109                 2.2913
 Frc consts  --      0.9332                 1.3852                 1.6015
 IR Inten    --      4.2905                52.5913               230.0374

                     49                     50                     51
                      A                      A                      A
 Frequencies --   1116.3434              1135.4105              1171.3979
 Red. masses --      1.5395                 2.7863                 3.0610
 Frc consts  --      1.1304                 2.1164                 2.4747
 IR Inten    --     14.8526               111.1145                58.3710

                     52                     53                     54
                      A                      A                      A
 Frequencies --   1181.0533              1206.3888              1235.1803
 Red. masses --      1.1310                 1.1568                 1.3724
 Frc consts  --      0.9295                 0.9919                 1.2337
 IR Inten    --      9.3350                18.3156                48.2246

                     55                     56                     57
                      A                      A                      A
 Frequencies --   1271.1846              1316.3484              1340.0396
 Red. masses --      2.6596                 5.0581                 2.8527
 Frc consts  --      2.5321                 5.1639                 3.0182
 IR Inten    --    591.8404               165.7933               646.8386

                     58                     59                     60
                      A                      A                      A
 Frequencies --   1341.0867              1358.3331              1412.5584
 Red. masses --      1.3956                 1.8843                 1.4680
 Frc consts  --      1.4788                 2.0484                 1.7258
 IR Inten    --    102.2234                26.2712               296.8399

                     61                     62                     63
                      A                      A                      A
 Frequencies --   1424.6622              1444.8002              1451.4549
 Red. masses --      1.2263                 1.7670                 1.1503
 Frc consts  --      1.4665                 2.1732                 1.4279
 IR Inten    --     12.9734               215.1199               117.1121

                     64                     65                     66
                      A                      A                      A
 Frequencies --   1464.1906              1474.1570              1485.9829
 Red. masses --      1.2701                 1.8197                 1.2138
 Frc consts  --      1.6043                 2.3298                 1.5791
 IR Inten    --     14.1903               374.0723               138.2633

                     67                     68                     69
                      A                      A                      A
 Frequencies --   1495.5088              1501.2074              1504.1726
 Red. masses --      1.0412                 1.0473                 1.0340
 Frc consts  --      1.3720                 1.3906                 1.3783
 IR Inten    --     25.1320                23.3314                17.7378

                     70                     71                     72
                      A                      A                      A
 Frequencies --   1515.0233              1545.2356              1564.4744
 Red. masses --      1.1533                 2.4522                 1.9082
 Frc consts  --      1.5597                 3.4498                 2.7518
 IR Inten    --    484.1334               155.2233               384.9879

                     73                     74                     75
                      A                      A                      A
 Frequencies --   1645.6210              1655.9169              1670.2272
 Red. masses --      1.0872                 6.2119                 4.4060
 Frc consts  --      1.7348                10.0358                 7.2418
 IR Inten    --     77.0452               131.7891                55.2018

                     76                     77                     78
                      A                      A                      A
 Frequencies --   1683.3382              3011.1863              3059.9673
 Red. masses --      5.6206                 1.0464                 1.0988
 Frc consts  --      9.3837                 5.5904                 6.0620
 IR Inten    --    593.9278                79.7976                47.1522

                     79                     80                     81
                      A                      A                      A
 Frequencies --   3069.6559              3082.4985              3148.5238
 Red. masses --      1.0348                 1.0370                 1.0973
 Frc consts  --      5.7448                 5.8052                 6.4093
 IR Inten    --     31.1382                19.0328                18.1425

                     82                     83                     84
                      A                      A                      A
 Frequencies --   3148.6434              3160.0715              3177.3857
 Red. masses --      1.0973                 1.1031                 1.1053
 Frc consts  --      6.4096                 6.4903                 6.5745
 IR Inten    --      4.4815                18.7447                12.1493

                     85                     86                     87
                      A                      A                      A
 Frequencies --   3183.7578              3185.1474              3194.2755
 Red. masses --      1.0880                 1.1017                 1.0882
 Frc consts  --      6.4976                 6.5851                 6.5418
 IR Inten    --     16.3652                 4.8976                 3.7330

                     88                     89                     90
                      A                      A                      A
 Frequencies --   3204.1513              3220.5344              3274.0180
 Red. masses --      1.0930                 1.0978                 1.0922
 Frc consts  --      6.6113                 6.7085                 6.8977
 IR Inten    --     32.6359                25.2724                 5.9290

                     91                     92                     93
                      A                      A                      A
 Frequencies --   3519.6128              3600.5084              3674.8324
 Red. masses --      1.0511                 1.0966                 1.0759
 Frc consts  --      7.6717                 8.3757                 8.5603
 IR Inten    --     63.7065                54.7300                57.1988

 - Thermochemistry -
 -------------------
 Temperature   298.150 Kelvin.  Pressure   1.00000 Atm.
 Atom     1 has atomic number  6 and mass  12.00000

 Molecular mass:   240.10294 amu.
 Principal axes and moments of inertia in atomic units:
                           1         2         3
     Eigenvalues --  1620.559898792.491799016.77299
           X            0.99988  -0.00806   0.01302
           Y            0.00719   0.99781   0.06582
           Z           -0.01352  -0.06572   0.99775
 This molecule is an asymmetric top.
 Rotational symmetry number  1.
 Warning -- assumption of classical behavior for rotation
           may cause significant error
 Rotational temperatures (Kelvin)      0.05345     0.00985     0.00961
 Rotational constants (GHZ):           1.11365     0.20526     0.20015
    1 imaginary frequencies ignored.
 Zero-point vibrational energy     725546.8 (Joules/Mol)
                                  173.40985 (Kcal/Mol)
 Warning -- explicit consideration of  25 degrees of freedom as
           vibrations may cause significant error
 Vibrational temperatures:     22.21    46.39    76.54   116.27   138.62
          (Kelvin)            144.58   225.04   268.64   284.65   315.31
                              344.43   360.76   383.77   410.40   435.96
                              469.16   494.25   516.76   564.08   611.53
                              667.50   709.81   734.82   760.36   830.37
                              895.92   919.58   943.53  1034.23  1048.56
                             1115.09  1125.95  1232.23  1236.88  1273.38
                             1337.08  1404.69  1437.25  1458.55  1459.68
                             1465.77  1504.89  1515.79  1526.87  1533.61
                             1555.72  1567.07  1606.17  1633.60  1685.38
                             1699.27  1735.72  1777.15  1828.95  1893.93
                             1928.02  1929.52  1954.34  2032.36  2049.77
                             2078.75  2088.32  2106.64  2120.98  2138.00
                             2151.70  2159.90  2164.17  2179.78  2223.25
                             2250.93  2367.68  2382.50  2403.08  2421.95
                             4332.43  4402.61  4416.55  4435.03  4530.02
                             4530.20  4546.64  4571.55  4580.72  4582.72
                             4595.85  4610.06  4633.63  4710.58  5063.94
                             5180.33  5287.26

 Zero-point correction=                           0.276346 (Hartree/Particle)
 Thermal correction to Energy=                    0.293061
 Thermal correction to Enthalpy=                  0.294005
 Thermal correction to Gibbs Free Energy=         0.230426
 Sum of electronic and zero-point Energies=          -1112.183918
 Sum of electronic and thermal Energies=             -1112.167204
 Sum of electronic and thermal Enthalpies=           -1112.166260
 Sum of electronic and thermal Free Energies=        -1112.229838

                     E (Thermal)             CV                S
                      KCal/Mol        Cal/Mol-Kelvin    Cal/Mol-Kelvin
 Total                  183.898             62.441            133.813
 Electronic               0.000              0.000              0.000
 Translational            0.889              2.981             42.329
 Rotational               0.889              2.981             33.218
 Vibrational            182.121             56.479             58.265
 Vibration     1          0.593              1.986              7.148
 Vibration     2          0.594              1.983              5.686
 Vibration     3          0.596              1.976              4.695
 Vibration     4          0.600              1.962              3.871
 Vibration     5          0.603              1.952              3.527
 Vibration     6          0.604              1.949              3.445
 Vibration     7          0.620              1.895              2.593
 Vibration     8          0.632              1.858              2.260
 Vibration     9          0.637              1.843              2.153
 Vibration    10          0.647              1.812              1.966
 Vibration    11          0.657              1.780              1.807
 Vibration    12          0.663              1.762              1.725
 Vibration    13          0.672              1.734              1.617
 Vibration    14          0.683              1.701              1.502
 Vibration    15          0.694              1.668              1.400
 Vibration    16          0.710              1.623              1.279
 Vibration    17          0.722              1.588              1.196
 Vibration    18          0.734              1.556              1.126
 Vibration    19          0.759              1.487              0.992
 Vibration    20          0.787              1.416              0.875
 Vibration    21          0.821              1.330              0.755
 Vibration    22          0.849              1.265              0.675
 Vibration    23          0.866              1.226              0.632
 Vibration    24          0.883              1.187              0.591
 Vibration    25          0.934              1.081              0.491

 Optimization completed.
    -- Stationary point found.
 Normal termination of Gaussian 16 at Sun Feb 28 23:48:16 2021.
