 Gaussian 16, Revision A.03,
 Gaussian 16:  ES64L-G16RevA.03 25-Dec-2016

 ----------------------------------------------------------------------
 # wB97XD def2tzvp, opt=(ts, noeigen, calcfc, maxcycles=70, maxstep=8),
  freq=noraman, scrf=(iefpcm, solvent=water)
 ----------------------------------------------------------------------

 ------------------------
 1_iteration/TS-937-1.out
 ------------------------
 Symbolic Z-matrix:
 Charge =  0 Multiplicity = 1

 SCF Done:  E(RwB97XD) =  -3360.31678138     A.U. after   15 cycles
 SCF Done:  E(RwB97XD) =  -3360.31678145     A.U. after    7 cycles
 Optimization completed.
    -- Stationary point found.
 Normal termination of Gaussian 16 at Sun Feb 28 12:46:59 2021.

 ---------------------------------------------------------------------
 #N Geom=AllCheck Guess=TCheck SCRF=Check GenChk RwB97XD/def2TZVP Freq
 ---------------------------------------------------------------------

 Structure from the checkpoint file:  "/beegfs/scratch/user/q/tla25/Gau-22538.chk"
 ------------------------
 1_iteration/TS-937-1.out
 ------------------------
 Charge =  0 Multiplicity = 1

                         Standard orientation:
 ---------------------------------------------------------------------
 Center     Atomic      Atomic             Coordinates (Angstroms)
 Number     Number       Type             X           Y           Z
 ---------------------------------------------------------------------
      1          6           0       -1.264482    0.155971   -0.334555
      2          6           0       -1.766298   -1.174584   -0.379834
      3          8           0       -2.953911   -1.487519   -0.489936
      4          6           0        0.084336    0.420224   -0.130473
      5          6           0       -0.196318   -0.203695    2.573602
      6          1           0        0.322265   -1.152924    2.455485
      7          1           0       -0.157591    0.104241    3.617337
      8          1           0       -1.236548   -0.322503    2.270786
      9          7           0        0.423019    0.793180    1.711836
     10          1           0        0.026780    1.714683    1.863244
     11          1           0        1.426343    0.856463    1.847701
     12         17           0        0.712381    1.960136   -0.753770
     13         35           0        1.400966   -0.970018   -0.396822
     14          6           0       -2.243186    1.299936   -0.381258
     15          1           0       -2.154472    1.963191    0.483941
     16          1           0       -2.120760    1.914987   -1.275470
     17          1           0       -3.251238    0.888015   -0.385643
     18          1           0       -1.013246   -1.977037   -0.322771
 ---------------------------------------------------------------------

 SCF Done:  E(RwB97XD) =  -3360.31678145     A.U. after    1 cycles

 The electronic state is 1-A.
 Alpha  occ. eigenvalues -- -483.14631-101.71228 -62.69475 -56.48608 -56.48226
 Alpha  occ. eigenvalues --  -56.48217 -19.21084 -14.50363 -10.44964 -10.34736
 Alpha  occ. eigenvalues --  -10.32338 -10.27594 -10.27480  -9.59817  -8.83585
 Alpha  occ. eigenvalues --   -7.34476  -7.33588  -7.33554  -6.65789  -6.64575
 Alpha  occ. eigenvalues --   -6.64548  -2.76167  -2.75819  -2.75799  -2.74817
 Alpha  occ. eigenvalues --   -2.74816  -1.11316  -1.06091  -0.99415  -0.90738
 Alpha  occ. eigenvalues --   -0.87812  -0.79904  -0.77710  -0.71755  -0.64809
 Alpha  occ. eigenvalues --   -0.61314  -0.59026  -0.58346  -0.55961  -0.54165
 Alpha  occ. eigenvalues --   -0.50377  -0.49575  -0.48972  -0.47585  -0.46212
 Alpha  occ. eigenvalues --   -0.45900  -0.45315  -0.41966  -0.40612  -0.38513
 Alpha  occ. eigenvalues --   -0.38121  -0.32413  -0.28528
 Alpha virt. eigenvalues --    0.02736   0.03993   0.08593   0.09981   0.13386
 Alpha virt. eigenvalues --    0.14128   0.14457   0.16411   0.17556   0.19080
 Alpha virt. eigenvalues --    0.19429   0.20246   0.21461   0.22479   0.24021

 Mulliken charges:
               1
     1  C   -0.202204
     2  C    0.124414
     3  O   -0.505584
     4  C    0.149057
     5  C   -0.312560
     6  H    0.162888
     7  H    0.171216
     8  H    0.169851
     9  N   -0.310785
    10  H    0.293104
    11  H    0.302256
    12  Cl  -0.064165
    13  Br  -0.053289
    14  C   -0.400243
    15  H    0.122694
    16  H    0.134648
    17  H    0.132529
    18  H    0.086172
 Sum of Mulliken charges =  -0.00000

 Dipole moment (field-independent basis, Debye):
    X=              6.2542    Y=              4.1674    Z=              6.9198  Tot=             10.2160
 Quadrupole moment (field-independent basis, Debye-Ang):
   XX=            -92.2413   YY=            -74.6749   ZZ=            -63.0413
   XY=            -10.2114   XZ=             -1.2879   YZ=              2.6562

  Exact polarizability: 177.802  14.170 157.363  12.392   4.427 132.627
 Approx polarizability: 143.689  11.308 132.984   8.083   3.274 111.728

 ******    1 imaginary frequencies (negative Signs) ******

                      1                      2                      3
                      A                      A                      A
 Frequencies --   -365.1386                56.1829                78.3769
 Red. masses --      5.9386                 3.4854                 2.1011
 Frc consts  --      0.4665                 0.0065                 0.0076
 IR Inten    --    838.7031                 0.4241                 0.2917

                      4                      5                      6
                      A                      A                      A
 Frequencies --     99.1025               110.8402               149.6811
 Red. masses --      1.3093                 2.1106                 1.8759
 Frc consts  --      0.0076                 0.0153                 0.0248
 IR Inten    --      5.4764                 3.5255                 2.8940

                      7                      8                      9
                      A                      A                      A
 Frequencies --    177.1784               200.6763               215.1874
 Red. masses --      4.9786                 2.2631                 8.5201
 Frc consts  --      0.0921                 0.0537                 0.2324
 IR Inten    --      6.5175                 0.5646                11.6966

                     10                     11                     12
                      A                      A                      A
 Frequencies --    253.7404               289.2593               320.0069
 Red. masses --      3.8733                 3.2452                 3.8443
 Frc consts  --      0.1469                 0.1600                 0.2319
 IR Inten    --      6.1996                12.8350                10.7661

                     13                     14                     15
                      A                      A                      A
 Frequencies --    331.4355               353.6059               409.4445
 Red. masses --      5.2158                 3.1854                 8.8345
 Frc consts  --      0.3376                 0.2347                 0.8726
 IR Inten    --     16.9039                29.5515                 2.0922

                     16                     17                     18
                      A                      A                      A
 Frequencies --    538.4709               653.7446               737.6039
 Red. masses --      4.0101                 1.7560                 3.0304
 Frc consts  --      0.6851                 0.4422                 0.9714
 IR Inten    --    137.4394                10.1256               162.0896

                     19                     20                     21
                      A                      A                      A
 Frequencies --    815.3714               897.5125              1004.0346
 Red. masses --      5.4276                 3.4272                 1.1343
 Frc consts  --      2.1260                 1.6266                 0.6737
 IR Inten    --    226.9834                35.9897                61.2976

                     22                     23                     24
                      A                      A                      A
 Frequencies --   1019.6109              1027.8627              1042.4009
 Red. masses --      1.5558                 1.5580                 1.1582
 Frc consts  --      0.9529                 0.9698                 0.7415
 IR Inten    --     58.1531               164.1043               105.9058

                     25                     26                     27
                      A                      A                      A
 Frequencies --   1061.1329              1084.0904              1225.8897
 Red. masses --      1.4500                 4.9565                 1.3893
 Frc consts  --      0.9619                 3.4321                 1.2301
 IR Inten    --      7.5708                47.9262                31.2535

                     28                     29                     30
                      A                      A                      A
 Frequencies --   1335.4387              1338.5364              1389.2287
 Red. masses --      2.9061                 1.3293                 4.9562
 Frc consts  --      3.0536                 1.4033                 5.6357
 IR Inten    --    641.7190                 1.4987               499.8377

                     31                     32                     33
                      A                      A                      A
 Frequencies --   1395.4798              1453.8201              1465.9960
 Red. masses --      1.2701                 1.1902                 1.2406
 Frc consts  --      1.4572                 1.4822                 1.5708
 IR Inten    --     84.4282                 3.9002                14.0704

                     34                     35                     36
                      A                      A                      A
 Frequencies --   1484.0158              1493.7379              1496.5489
 Red. masses --      1.0637                 1.0899                 1.1889
 Frc consts  --      1.3802                 1.4327                 1.5688
 IR Inten    --     19.3848               112.3737                86.5075

                     37                     38                     39
                      A                      A                      A
 Frequencies --   1498.3850              1637.6439              1660.8737
 Red. masses --      1.0961                 1.0901                 7.2559
 Frc consts  --      1.4499                 1.7224                11.7927
 IR Inten    --     49.7103                76.1663              1000.0507

                     40                     41                     42
                      A                      A                      A
 Frequencies --   2986.7738              3038.1836              3074.9477
 Red. masses --      1.0823                 1.0399                 1.0326
 Frc consts  --      5.6887                 5.6556                 5.7523
 IR Inten    --     93.0789                60.7860                18.3157

                     43                     44                     45
                      A                      A                      A
 Frequencies --   3094.9549              3145.1766              3157.0972
 Red. masses --      1.0998                 1.0988                 1.1046
 Frc consts  --      6.2067                 6.4040                 6.4871
 IR Inten    --     37.9009                 7.3762                 3.8134

                     46                     47                     48
                      A                      A                      A
 Frequencies --   3171.6622              3513.6982              3597.3973
 Red. masses --      1.1060                 1.0507                 1.0972
 Frc consts  --      6.5553                 7.6431                 8.3662
 IR Inten    --      7.9349                84.8833                66.8505

 - Thermochemistry -
 -------------------
 Temperature   298.150 Kelvin.  Pressure   1.00000 Atm.
 Atom     1 has atomic number  6 and mass  12.00000

 Molecular mass:   212.95560 amu.
 Principal axes and moments of inertia in atomic units:
                           1         2         3
     Eigenvalues --  1797.834702317.481232729.93461
           X            0.99952   0.01330   0.02803
           Y           -0.01311   0.99989  -0.00707
           Z           -0.02812   0.00670   0.99958
 This molecule is an asymmetric top.
 Rotational symmetry number  1.
 Warning -- assumption of classical behavior for rotation
           may cause significant error
 Rotational temperatures (Kelvin)      0.04818     0.03737     0.03173
 Rotational constants (GHZ):           1.00384     0.77875     0.66109
    1 imaginary frequencies ignored.
 Zero-point vibrational energy     362361.1 (Joules/Mol)
                                   86.60637 (Kcal/Mol)
 Warning -- explicit consideration of  15 degrees of freedom as
           vibrations may cause significant error
 Vibrational temperatures:     80.83   112.77   142.59   159.47   215.36
          (Kelvin)            254.92   288.73   309.61   365.08   416.18
                              460.42   476.86   508.76   589.10   774.74
                              940.59  1061.25  1173.14  1291.32  1444.58
                             1466.99  1478.87  1499.78  1526.73  1559.76
                             1763.78  1921.40  1925.86  1998.79  2007.78
                             2091.72  2109.24  2135.17  2149.16  2153.20
                             2155.84  2356.20  2389.63  4297.30  4371.27
                             4424.16  4452.95  4525.21  4542.36  4563.31
                             5055.43  5175.85

 Zero-point correction=                           0.138016 (Hartree/Particle)
 Thermal correction to Energy=                    0.149421
 Thermal correction to Enthalpy=                  0.150365
 Thermal correction to Gibbs Free Energy=         0.099414
 Sum of electronic and zero-point Energies=          -3360.178765
 Sum of electronic and thermal Energies=             -3360.167361
 Sum of electronic and thermal Enthalpies=           -3360.166417
 Sum of electronic and thermal Free Energies=        -3360.217367

                     E (Thermal)             CV                S
                      KCal/Mol        Cal/Mol-Kelvin    Cal/Mol-Kelvin
 Total                   93.763             38.165            107.235
 Electronic               0.000              0.000              0.000
 Translational            0.889              2.981             41.971
 Rotational               0.889              2.981             30.809
 Vibrational             91.985             32.203             34.455
 Vibration     1          0.596              1.975              4.587
 Vibration     2          0.600              1.964              3.931
 Vibration     3          0.604              1.950              3.472
 Vibration     4          0.607              1.940              3.254
 Vibration     5          0.618              1.903              2.676
 Vibration     6          0.628              1.870              2.358
 Vibration     7          0.638              1.839              2.127
 Vibration     8          0.645              1.818              1.999
 Vibration     9          0.665              1.756              1.704
 Vibration    10          0.686              1.694              1.478
 Vibration    11          0.706              1.635              1.310
 Vibration    12          0.714              1.613              1.253
 Vibration    13          0.730              1.568              1.150
 Vibration    14          0.774              1.450              0.929
 Vibration    15          0.894              1.165              0.569

 Optimization completed.
    -- Stationary point found.
 Normal termination of Gaussian 16 at Sun Feb 28 12:58:10 2021.
