 Gaussian 16, Revision A.03,
 Gaussian 16:  ES64L-G16RevA.03 25-Dec-2016

 ----------------------------------------------------------------------
 # wB97XD def2tzvp, opt=(ts, noeigen, calcfc, maxcycles=70, maxstep=1),
  freq=noraman, scrf=(iefpcm, solvent=water)
 ----------------------------------------------------------------------

 ------------------------
 0_iteration/TS-917-0.out
 ------------------------
 Symbolic Z-matrix:
 Charge =  0 Multiplicity = 1

 SCF Done:  E(RwB97XD) =  -1341.01002351     A.U. after   15 cycles
 SCF Done:  E(RwB97XD) =  -1341.01001044     A.U. after   10 cycles
 SCF Done:  E(RwB97XD) =  -1341.01000425     A.U. after   10 cycles
 SCF Done:  E(RwB97XD) =  -1341.01000600     A.U. after   11 cycles
 SCF Done:  E(RwB97XD) =  -1341.01001211     A.U. after   10 cycles
 SCF Done:  E(RwB97XD) =  -1341.01002708     A.U. after    9 cycles
 SCF Done:  E(RwB97XD) =  -1341.01006951     A.U. after    9 cycles
 SCF Done:  E(RwB97XD) =  -1341.01013783     A.U. after    9 cycles
 SCF Done:  E(RwB97XD) =  -1341.01023106     A.U. after    9 cycles
 SCF Done:  E(RwB97XD) =  -1341.01034357     A.U. after   10 cycles
 SCF Done:  E(RwB97XD) =  -1341.01731022     A.U. after   10 cycles
 SCF Done:  E(RwB97XD) =  -1341.01732809     A.U. after   10 cycles
 SCF Done:  E(RwB97XD) =  -1341.01733360     A.U. after   10 cycles
 SCF Done:  E(RwB97XD) =  -1341.01733328     A.U. after    8 cycles
 SCF Done:  E(RwB97XD) =  -1341.01732931     A.U. after   10 cycles
 SCF Done:  E(RwB97XD) =  -1341.01733350     A.U. after   10 cycles
 SCF Done:  E(RwB97XD) =  -1341.01733340     A.U. after    8 cycles
 SCF Done:  E(RwB97XD) =  -1341.01733326     A.U. after    8 cycles
 SCF Done:  E(RwB97XD) =  -1341.01733345     A.U. after    8 cycles
 Optimization completed.
    -- Stationary point found.
 Normal termination of Gaussian 16 at Sun Feb 28 02:16:03 2021.

 ---------------------------------------------------------------------
 #N Geom=AllCheck Guess=TCheck SCRF=Check GenChk RwB97XD/def2TZVP Freq
 ---------------------------------------------------------------------

 Structure from the checkpoint file:  "/beegfs/scratch/user/q/tla25/Gau-66086.chk"
 ------------------------
 0_iteration/TS-917-0.out
 ------------------------
 Charge =  0 Multiplicity = 1

                         Standard orientation:
 ---------------------------------------------------------------------
 Center     Atomic      Atomic             Coordinates (Angstroms)
 Number     Number       Type             X           Y           Z
 ---------------------------------------------------------------------
      1          6           0       -0.188888    0.334337   -0.182965
      2          6           0       -1.487567   -0.291112   -0.367997
      3          8           0       -1.638973   -1.390882   -0.919028
      4          6           0        1.039208   -0.266103   -0.440484
      5          6           0        0.946945   -1.611217    1.993717
      6          1           0        1.242937   -1.626439    3.041589
      7          1           0       -0.064387   -1.209375    1.912622
      8          1           0        0.962765   -2.624280    1.599725
      9          7           0        1.835247   -0.766092    1.204131
     10          1           0        2.005968    0.120160    1.666191
     11          1           0        2.733522   -1.202746    1.029767
     12         17           0        2.377385    0.844019   -0.939490
     13          6           0        1.143517   -1.557726   -1.203899
     14          1           0        0.513654   -2.318627   -0.754002
     15          1           0        0.797661   -1.403412   -2.224572
     16          1           0        2.179886   -1.889569   -1.230591
     17         17           0       -0.145644    1.889058    0.655278
     18          7           0       -2.576248    0.390733    0.074391
     19          6           0       -3.911739   -0.122126   -0.109260
     20          1           0       -2.455271    1.280497    0.519799
     21          1           0       -4.141889   -0.269508   -1.166586
     22          1           0       -4.047827   -1.077348    0.402014
     23          1           0       -4.616684    0.596588    0.303531
 ---------------------------------------------------------------------

 SCF Done:  E(RwB97XD) =  -1341.01733345     A.U. after    1 cycles

 The electronic state is 1-A.
 Alpha  occ. eigenvalues -- -101.69437-101.69254 -19.19628 -14.49457 -14.44258
 Alpha  occ. eigenvalues --  -10.40727 -10.38040 -10.32000 -10.30993 -10.30555
 Alpha  occ. eigenvalues --  -10.28653  -9.58044  -9.57795  -7.32663  -7.32404
 Alpha  occ. eigenvalues --   -7.31840  -7.31799  -7.31603  -7.31571  -1.12635
 Alpha  occ. eigenvalues --   -1.05312  -1.01225  -0.98267  -0.93960  -0.86222
 Alpha  occ. eigenvalues --   -0.81412  -0.79424  -0.77811  -0.69091  -0.65498
 Alpha  occ. eigenvalues --   -0.63897  -0.59357  -0.58212  -0.56481  -0.55538
 Alpha  occ. eigenvalues --   -0.53561  -0.53204  -0.50950  -0.50044  -0.48839
 Alpha  occ. eigenvalues --   -0.47448  -0.47140  -0.46754  -0.46313  -0.44989
 Alpha  occ. eigenvalues --   -0.42087  -0.41054  -0.39244  -0.38589  -0.33430
 Alpha  occ. eigenvalues --   -0.33173  -0.27315
 Alpha virt. eigenvalues --    0.05291   0.07839   0.10305   0.12394   0.13255
 Alpha virt. eigenvalues --    0.14580   0.15144   0.15451   0.16019   0.17172
 Alpha virt. eigenvalues --    0.18254   0.19794   0.20486   0.21318   0.21447

 Mulliken charges:
               1
     1  C   -0.228869
     2  C    0.372273
     3  O   -0.554868
     4  C    0.131664
     5  C   -0.306572
     6  H    0.163413
     7  H    0.158725
     8  H    0.163829
     9  N   -0.311826
    10  H    0.285938
    11  H    0.294665
    12  Cl  -0.136500
    13  C   -0.354018
    14  H    0.150983
    15  H    0.148044
    16  H    0.144593
    17  Cl  -0.183456
    18  N   -0.325060
    19  C   -0.243905
    20  H    0.244074
    21  H    0.124025
    22  H    0.124228
    23  H    0.138621
 Sum of Mulliken charges =  -0.00000

 Dipole moment (field-independent basis, Debye):
    X=              3.7259    Y=             -1.7117    Z=              5.7386  Tot=              7.0529
 Quadrupole moment (field-independent basis, Debye-Ang):
   XX=            -68.7162   YY=            -82.7873   ZZ=            -76.8770
   XY=            -14.1385   XZ=              3.0247   YZ=             -4.7086

  Exact polarizability: 199.413  -2.833 158.945   1.457   3.667 141.280
 Approx polarizability: 151.126  -0.382 138.104   0.813   5.558 121.774

 ******    1 imaginary frequencies (negative Signs) ******

                      1                      2                      3
                      A                      A                      A
 Frequencies --   -364.3143                41.6480                61.3008
 Red. masses --      5.7302                 3.8528                 5.5211
 Frc consts  --      0.4481                 0.0039                 0.0122
 IR Inten    --    719.3183                22.7225                 5.8140

                      4                      5                      6
                      A                      A                      A
 Frequencies --     82.8898                85.2420               134.6191
 Red. masses --      2.3696                 2.4525                 2.2816
 Frc consts  --      0.0096                 0.0105                 0.0244
 IR Inten    --      6.5862                 5.9261                18.6213

                      7                      8                      9
                      A                      A                      A
 Frequencies --    144.6401               166.1396               181.1324
 Red. masses --      1.3615                 4.7370                 1.2321
 Frc consts  --      0.0168                 0.0770                 0.0238
 IR Inten    --      2.3334                 8.3619                 4.6651

                     10                     11                     12
                      A                      A                      A
 Frequencies --    202.2165               229.4486               272.3339
 Red. masses --      7.2800                 6.1444                 1.3024
 Frc consts  --      0.1754                 0.1906                 0.0569
 IR Inten    --     16.1925                 3.4780                 1.0705

                     13                     14                     15
                      A                      A                      A
 Frequencies --    295.6982               316.0400               331.3802
 Red. masses --      2.9307                 2.5642                 3.4452
 Frc consts  --      0.1510                 0.1509                 0.2229
 IR Inten    --     16.0870                 9.5714                14.4789

                     16                     17                     18
                      A                      A                      A
 Frequencies --    334.3098               357.5486               374.3754
 Red. masses --      3.6619                 4.5286                 1.3199
 Frc consts  --      0.2411                 0.3411                 0.1090
 IR Inten    --     28.8698                26.6274                70.1874

                     19                     20                     21
                      A                      A                      A
 Frequencies --    444.3032               477.1261               533.6906
 Red. masses --      8.9204                 4.3303                 4.6721
 Frc consts  --      1.0375                 0.5808                 0.7840
 IR Inten    --     30.0481                22.9943                87.6702

                     22                     23                     24
                      A                      A                      A
 Frequencies --    649.1410               718.4961               772.6124
 Red. masses --      2.6192                 1.8099                 8.0372
 Frc consts  --      0.6503                 0.5505                 2.8267
 IR Inten    --     91.7613               135.6061                36.1555

                     25                     26                     27
                      A                      A                      A
 Frequencies --    805.4869               984.5322              1004.6122
 Red. masses --      3.9315                 4.2205                 1.2836
 Frc consts  --      1.5029                 2.4103                 0.7632
 IR Inten    --     33.1147                56.0602                18.3245

                     28                     29                     30
                      A                      A                      A
 Frequencies --   1027.8282              1048.7554              1067.6418
 Red. masses --      1.8080                 1.1986                 1.5488
 Frc consts  --      1.1254                 0.7767                 1.0401
 IR Inten    --     67.7634                 8.6408               123.9824

                     31                     32                     33
                      A                      A                      A
 Frequencies --   1083.9447              1117.2669              1157.8047
 Red. masses --      3.4230                 2.1928                 1.2861
 Frc consts  --      2.3696                 1.6127                 1.0158
 IR Inten    --      1.1478                97.5693                 0.0747

                     34                     35                     36
                      A                      A                      A
 Frequencies --   1178.9384              1189.1213              1227.5259
 Red. masses --      2.4737                 2.4554                 1.3867
 Frc consts  --      2.0257                 2.0456                 1.2311
 IR Inten    --     10.0834                34.0623                40.4053

                     37                     38                     39
                      A                      A                      A
 Frequencies --   1295.9639              1339.9531              1416.4173
 Red. masses --      2.3428                 1.3181                 1.5040
 Frc consts  --      2.3183                 1.3943                 1.7778
 IR Inten    --    355.9554                 8.4323               368.6280

                     40                     41                     42
                      A                      A                      A
 Frequencies --   1436.5057              1454.8604              1460.6756
 Red. masses --      2.0297                 1.1503                 1.2486
 Frc consts  --      2.4677                 1.4345                 1.5696
 IR Inten    --    460.9689                61.0485                13.3179

                     43                     44                     45
                      A                      A                      A
 Frequencies --   1463.2979              1476.4346              1489.9206
 Red. masses --      1.1226                 1.0397                 1.1917
 Frc consts  --      1.4163                 1.3354                 1.5586
 IR Inten    --     12.1994                12.2460                68.1096

                     46                     47                     48
                      A                      A                      A
 Frequencies --   1495.0158              1502.3039              1508.7435
 Red. masses --      1.0852                 1.0355                 1.0950
 Frc consts  --      1.4291                 1.3770                 1.4686
 IR Inten    --     86.8324                15.5464                36.6607

                     49                     50                     51
                      A                      A                      A
 Frequencies --   1546.9398              1640.8729              1647.7148
 Red. masses --      1.9703                 1.0931                 7.5889
 Frc consts  --      2.7780                 1.7340                12.1393
 IR Inten    --    712.2407                79.6810               460.9543

                     52                     53                     54
                      A                      A                      A
 Frequencies --   3047.6170              3069.7124              3086.0129
 Red. masses --      1.0357                 1.0343                 1.0366
 Frc consts  --      5.6679                 5.7426                 5.8163
 IR Inten    --     84.4467                29.9860                16.4458

                     55                     56                     57
                      A                      A                      A
 Frequencies --   3102.5660              3147.0974              3157.1814
 Red. masses --      1.1044                 1.1034                 1.1011
 Frc consts  --      6.2638                 6.4387                 6.4665
 IR Inten    --     48.1604                 7.0536                25.1866

                     58                     59                     60
                      A                      A                      A
 Frequencies --   3162.8069              3175.5179              3192.4883
 Red. masses --      1.1033                 1.1057                 1.1016
 Frc consts  --      6.5029                 6.5691                 6.6152
 IR Inten    --     14.6942                11.6610                 3.0310

                     61                     62                     63
                      A                      A                      A
 Frequencies --   3522.8460              3604.2252              3694.3803
 Red. masses --      1.0508                 1.0965                 1.0777
 Frc consts  --      7.6836                 8.3925                 8.6664
 IR Inten    --     58.0485                59.5768                84.0750

 - Thermochemistry -
 -------------------
 Temperature   298.150 Kelvin.  Pressure   1.00000 Atm.
 Atom     1 has atomic number  6 and mass  12.00000

 Molecular mass:   198.03267 amu.
 Principal axes and moments of inertia in atomic units:
                           1         2         3
     Eigenvalues --  1633.446143179.148893547.00071
           X            0.99924  -0.03443   0.01845
           Y            0.03539   0.99789  -0.05440
           Z           -0.01654   0.05501   0.99835
 This molecule is an asymmetric top.
 Rotational symmetry number  1.
 Warning -- assumption of classical behavior for rotation
           may cause significant error
 Rotational temperatures (Kelvin)      0.05303     0.02724     0.02442
 Rotational constants (GHZ):           1.10487     0.56768     0.50881
    1 imaginary frequencies ignored.
 Zero-point vibrational energy     485910.3 (Joules/Mol)
                                  116.13536 (Kcal/Mol)
 Warning -- explicit consideration of  20 degrees of freedom as
           vibrations may cause significant error
 Vibrational temperatures:     59.92    88.20   119.26   122.64   193.69
          (Kelvin)            208.10   239.04   260.61   290.94   330.13
                              391.83   425.44   454.71   476.78   481.00
                              514.43   538.64   639.25   686.48   767.86
                              933.97  1033.76  1111.62  1158.92  1416.52
                             1445.41  1478.82  1508.93  1536.10  1559.55
                             1607.50  1665.82  1696.23  1710.88  1766.14
                             1864.60  1927.89  2037.91  2066.81  2093.22
                             2101.59  2105.36  2124.26  2143.66  2150.99
                             2161.48  2170.75  2225.70  2360.85  2370.69
                             4384.84  4416.63  4440.08  4463.90  4527.97
                             4542.48  4550.57  4568.86  4593.28  5068.59
                             5185.68  5315.39

 Zero-point correction=                           0.185073 (Hartree/Particle)
 Thermal correction to Energy=                    0.198924
 Thermal correction to Enthalpy=                  0.199868
 Thermal correction to Gibbs Free Energy=         0.143894
 Sum of electronic and zero-point Energies=          -1340.832260
 Sum of electronic and thermal Energies=             -1340.818410
 Sum of electronic and thermal Enthalpies=           -1340.817465
 Sum of electronic and thermal Free Energies=        -1340.873440

                     E (Thermal)             CV                S
                      KCal/Mol        Cal/Mol-Kelvin    Cal/Mol-Kelvin
 Total                  124.827             47.741            117.808
 Electronic               0.000              0.000              0.000
 Translational            0.889              2.981             41.755
 Rotational               0.889              2.981             31.288
 Vibrational            123.049             41.779             44.765
 Vibration     1          0.594              1.981              5.179
 Vibration     2          0.597              1.973              4.415
 Vibration     3          0.600              1.961              3.821
 Vibration     4          0.601              1.959              3.766
 Vibration     5          0.613              1.919              2.879
 Vibration     6          0.616              1.908              2.742
 Vibration     7          0.624              1.884              2.479
 Vibration     8          0.630              1.865              2.317
 Vibration     9          0.639              1.837              2.113
 Vibration    10          0.652              1.796              1.883
 Vibration    11          0.675              1.724              1.581
 Vibration    12          0.690              1.682              1.441
 Vibration    13          0.703              1.643              1.331
 Vibration    14          0.714              1.613              1.253
 Vibration    15          0.716              1.607              1.239
 Vibration    16          0.733              1.560              1.133
 Vibration    17          0.745              1.525              1.062
 Vibration    18          0.804              1.373              0.813
 Vibration    19          0.834              1.301              0.718
 Vibration    20          0.889              1.175              0.579

 Optimization completed.
    -- Stationary point found.
 Normal termination of Gaussian 16 at Sun Feb 28 02:40:24 2021.
