 Gaussian 16, Revision A.03,
 Gaussian 16:  ES64L-G16RevA.03 25-Dec-2016

 ----------------------------------------------------------------------
 # wB97XD def2tzvp, opt=(ts, noeigen, calcfc, maxcycles=70, maxstep=8),
  freq=noraman, scrf=(iefpcm, solvent=water)
 ----------------------------------------------------------------------

 ------------------------
 1_iteration/TS-902-1.out
 ------------------------
 Symbolic Z-matrix:
 Charge =  0 Multiplicity = 1

 SCF Done:  E(RwB97XD) =  -960.010909408     A.U. after   15 cycles
 SCF Done:  E(RwB97XD) =  -960.012093735     A.U. after   13 cycles
 SCF Done:  E(RwB97XD) =  -960.012917893     A.U. after   13 cycles
 SCF Done:  E(RwB97XD) =  -960.013162703     A.U. after   13 cycles
 SCF Done:  E(RwB97XD) =  -960.013217958     A.U. after   12 cycles
 SCF Done:  E(RwB97XD) =  -960.013252963     A.U. after   11 cycles
 SCF Done:  E(RwB97XD) =  -960.013256463     A.U. after   10 cycles
 SCF Done:  E(RwB97XD) =  -960.013253096     A.U. after   10 cycles
 SCF Done:  E(RwB97XD) =  -960.013256760     A.U. after   10 cycles
 SCF Done:  E(RwB97XD) =  -960.013256616     A.U. after   10 cycles
 SCF Done:  E(RwB97XD) =  -960.013258327     A.U. after   10 cycles
 SCF Done:  E(RwB97XD) =  -960.013263432     A.U. after   10 cycles
 SCF Done:  E(RwB97XD) =  -960.013242843     A.U. after   11 cycles
 SCF Done:  E(RwB97XD) =  -960.013261215     A.U. after   11 cycles
 SCF Done:  E(RwB97XD) =  -960.013262202     A.U. after    8 cycles
 SCF Done:  E(RwB97XD) =  -960.013262064     A.U. after    7 cycles
 Optimization completed.
    -- Stationary point found.
 Normal termination of Gaussian 16 at Sun Feb 28 15:37:58 2021.

 ---------------------------------------------------------------------
 #N Geom=AllCheck Guess=TCheck SCRF=Check GenChk RwB97XD/def2TZVP Freq
 ---------------------------------------------------------------------

 Structure from the checkpoint file:  "/beegfs/scratch/user/q/tla25/Gau-94826.chk"
 ------------------------
 1_iteration/TS-902-1.out
 ------------------------
 Charge =  0 Multiplicity = 1

                         Standard orientation:
 ---------------------------------------------------------------------
 Center     Atomic      Atomic             Coordinates (Angstroms)
 Number     Number       Type             X           Y           Z
 ---------------------------------------------------------------------
      1          6           0       -0.153069   -0.640681    0.529321
      2          6           0       -1.514479   -0.725122    0.023646
      3          8           0       -2.050438   -1.823639   -0.188003
      4          6           0        0.795954    0.222552    0.004638
      5          6           0        3.140414   -0.215091   -1.638901
      6          1           0        3.809396   -0.999461   -1.992437
      7          1           0        2.780300    0.353725   -2.491827
      8          1           0        3.681356    0.441950   -0.961747
      9          7           0        2.001262   -0.799605   -0.923134
     10          1           0        1.391826   -1.308263   -1.555964
     11          1           0        2.323419   -1.461540   -0.225308
     12         17           0        2.071282    0.885597    1.248417
     13          6           0        0.508651    1.331362   -0.965984
     14          1           0       -0.128900    0.974119   -1.773513
     15          1           0        0.008470    2.154365   -0.462645
     16          1           0        1.431634    1.726177   -1.382905
     17          6           0        0.287457   -1.813115    1.374023
     18          1           0        1.173137   -1.559671    1.960144
     19          1           0       -0.496135   -2.104743    2.075348
     20          1           0        0.523235   -2.708639    0.786525
     21          7           0       -2.238889    0.427550   -0.207403
     22          6           0       -2.162622    1.576436    0.671429
     23          6           0       -3.511564    0.295771   -0.882849
     24          1           0       -1.277819    1.511253    1.298916
     25          1           0       -2.130716    2.507397    0.099552
     26          1           0       -3.045197    1.612645    1.321190
     27          1           0       -3.440171   -0.445501   -1.674682
     28          1           0       -4.313472   -0.007687   -0.198860
     29          1           0       -3.779715    1.259538   -1.319022
 ---------------------------------------------------------------------

 SCF Done:  E(RwB97XD) =  -960.013262064     A.U. after    1 cycles

 The electronic state is 1-A.
 Alpha  occ. eigenvalues -- -101.67303 -19.19337 -14.50143 -14.44399 -10.39731
 Alpha  occ. eigenvalues --  -10.36632 -10.32271 -10.30325 -10.29832 -10.28532
 Alpha  occ. eigenvalues --  -10.26653 -10.24870  -9.55909  -7.30445  -7.29743
 Alpha  occ. eigenvalues --   -7.29716  -1.11931  -1.05679  -1.01886  -0.94641
 Alpha  occ. eigenvalues --   -0.87206  -0.83592  -0.80990  -0.79842  -0.78287
 Alpha  occ. eigenvalues --   -0.73465  -0.67048  -0.64238  -0.61035  -0.59874
 Alpha  occ. eigenvalues --   -0.56569  -0.56042  -0.55280  -0.54585  -0.53197
 Alpha  occ. eigenvalues --   -0.50496  -0.49823  -0.48981  -0.48376  -0.47940
 Alpha  occ. eigenvalues --   -0.47816  -0.46139  -0.45383  -0.44735  -0.44401
 Alpha  occ. eigenvalues --   -0.43786  -0.42672  -0.38706  -0.38132  -0.33574
 Alpha  occ. eigenvalues --   -0.30903  -0.25455
 Alpha virt. eigenvalues --    0.06129   0.08335   0.09618   0.12161   0.13410
 Alpha virt. eigenvalues --    0.14403   0.14932   0.16273   0.16545   0.17137
 Alpha virt. eigenvalues --    0.17524   0.18447   0.19090   0.19374   0.19665

 Mulliken charges:
               1
     1  C   -0.148268
     2  C    0.272256
     3  O   -0.535974
     4  C    0.086438
     5  C   -0.309637
     6  H    0.164457
     7  H    0.167530
     8  H    0.156009
     9  N   -0.255957
    10  H    0.289928
    11  H    0.293705
    12  Cl  -0.251629
    13  C   -0.383063
    14  H    0.157710
    15  H    0.147787
    16  H    0.156562
    17  C   -0.461855
    18  H    0.133135
    19  H    0.124389
    20  H    0.119584
    21  N   -0.137338
    22  C   -0.325936
    23  C   -0.286642
    24  H    0.161194
    25  H    0.147366
    26  H    0.130473
    27  H    0.135160
    28  H    0.121148
    29  H    0.131466
 Sum of Mulliken charges =  -0.00000

 Dipole moment (field-independent basis, Debye):
    X=              5.5051    Y=              2.3782    Z=             -5.0445  Tot=              7.8364
 Quadrupole moment (field-independent basis, Debye-Ang):
   XX=            -75.5823   YY=            -87.2108   ZZ=            -78.4933
   XY=            -18.7148   XZ=            -10.9535   YZ=             -0.3130

  Exact polarizability: 225.908  10.771 177.977  -0.881   3.394 162.006
 Approx polarizability: 166.241   9.441 148.928   1.793   4.086 136.747

 ******    1 imaginary frequencies (negative Signs) ******

                      1                      2                      3
                      A                      A                      A
 Frequencies --   -391.6423                34.5325                53.0623
 Red. masses --      6.6508                 2.7538                 2.9604
 Frc consts  --      0.6010                 0.0019                 0.0049
 IR Inten    --    535.5924                 1.3390                13.1875

                      4                      5                      6
                      A                      A                      A
 Frequencies --     86.5606               100.5828               140.1846
 Red. masses --      4.5962                 3.1340                 2.0389
 Frc consts  --      0.0203                 0.0187                 0.0236
 IR Inten    --     11.6646                 2.9304                 3.4215

                      7                      8                      9
                      A                      A                      A
 Frequencies --    153.8835               164.0279               180.3629
 Red. masses --      1.6087                 1.3265                 1.3597
 Frc consts  --      0.0224                 0.0210                 0.0261
 IR Inten    --      5.7441                 9.5613                 1.1940

                     10                     11                     12
                      A                      A                      A
 Frequencies --    193.0736               203.5694               238.7981
 Red. masses --      1.3900                 2.3016                 2.0205
 Frc consts  --      0.0305                 0.0562                 0.0679
 IR Inten    --      3.3811                17.4108                 5.7400

                     13                     14                     15
                      A                      A                      A
 Frequencies --    250.7562               292.6561               294.7472
 Red. masses --      3.8328                 3.1670                 1.1704
 Frc consts  --      0.1420                 0.1598                 0.0599
 IR Inten    --     14.7228                35.8633                11.4805

                     16                     17                     18
                      A                      A                      A
 Frequencies --    310.8575               330.0156               336.5249
 Red. masses --      2.7409                 2.8487                 2.5995
 Frc consts  --      0.1560                 0.1828                 0.1734
 IR Inten    --     75.4275                 6.7033                10.8998

                     19                     20                     21
                      A                      A                      A
 Frequencies --    345.7962               383.9245               415.6380
 Red. masses --      2.0090                 3.1280                 3.2109
 Frc consts  --      0.1415                 0.2717                 0.3268
 IR Inten    --     38.2505                36.7494                87.8397

                     22                     23                     24
                      A                      A                      A
 Frequencies --    463.2887               512.1944               572.8995
 Red. masses --      2.9838                 3.7862                 4.1237
 Frc consts  --      0.3773                 0.5852                 0.7974
 IR Inten    --     49.7559               202.4073               108.8328

                     25                     26                     27
                      A                      A                      A
 Frequencies --    605.4163               716.2796               741.2442
 Red. masses --      4.3828                 2.2731                 1.9741
 Frc consts  --      0.9465                 0.6871                 0.6391
 IR Inten    --     53.3050                22.6855               190.2418

                     28                     29                     30
                      A                      A                      A
 Frequencies --    802.9780               911.3878               986.7650
 Red. masses --      6.3689                 2.3083                 2.1460
 Frc consts  --      2.4195                 1.1297                 1.2311
 IR Inten    --     27.8600               157.6747               106.3349

                     31                     32                     33
                      A                      A                      A
 Frequencies --   1027.3600              1042.2093              1059.6271
 Red. masses --      1.1593                 2.3137                 1.5451
 Frc consts  --      0.7209                 1.4807                 1.0221
 IR Inten    --     21.5423                96.9769               215.6824

                     34                     35                     36
                      A                      A                      A
 Frequencies --   1073.4481              1079.3335              1082.6417
 Red. masses --      1.4314                 1.3793                 1.4072
 Frc consts  --      0.9718                 0.9467                 0.9718
 IR Inten    --     11.0979                86.3305                 3.7889

                     37                     38                     39
                      A                      A                      A
 Frequencies --   1090.4357              1127.1279              1132.0517
 Red. masses --      1.8218                 1.9576                 1.2330
 Frc consts  --      1.2763                 1.4653                 0.9310
 IR Inten    --    112.2872                75.1452                 2.7652

                     40                     41                     42
                      A                      A                      A
 Frequencies --   1147.4174              1173.6131              1267.1080
 Red. masses --      2.6072                 1.3931                 1.3673
 Frc consts  --      2.0224                 1.1305                 1.2935
 IR Inten    --     77.4333                29.3429               110.6902

                     43                     44                     45
                      A                      A                      A
 Frequencies --   1281.2513              1315.9628              1349.5357
 Red. masses --      4.5855                 4.1682                 1.2750
 Frc consts  --      4.4351                 4.2529                 1.3682
 IR Inten    --     50.5998               136.4909                 5.7996

                     46                     47                     48
                      A                      A                      A
 Frequencies --   1402.0145              1413.5316              1422.4105
 Red. masses --      2.5615                 1.2658                 1.2777
 Frc consts  --      2.9665                 1.4901                 1.5231
 IR Inten    --    686.4355                13.5588                 9.5069

                     49                     50                     51
                      A                      A                      A
 Frequencies --   1440.3537              1442.1732              1465.6423
 Red. masses --      1.1605                 1.1888                 1.2937
 Frc consts  --      1.4185                 1.4568                 1.6374
 IR Inten    --      4.4647                 6.6997               227.6946

                     52                     53                     54
                      A                      A                      A
 Frequencies --   1472.9817              1479.6287              1482.5602
 Red. masses --      1.3642                 1.0946                 1.0909
 Frc consts  --      1.7440                 1.4119                 1.4127
 IR Inten    --    159.4276                50.1084                23.1761

                     55                     56                     57
                      A                      A                      A
 Frequencies --   1483.8222              1492.3364              1498.2214
 Red. masses --      1.0455                 1.1173                 1.0401
 Frc consts  --      1.3562                 1.4660                 1.3755
 IR Inten    --     17.1256                12.7560                21.5830

                     58                     59                     60
                      A                      A                      A
 Frequencies --   1499.1978              1501.7350              1511.5648
 Red. masses --      1.0763                 1.0654                 1.0773
 Frc consts  --      1.4253                 1.4156                 1.4503
 IR Inten    --      8.5140                32.0265                46.2574

                     61                     62                     63
                      A                      A                      A
 Frequencies --   1526.2800              1531.9813              1618.2210
 Red. masses --      1.4512                 1.3961                 8.2858
 Frc consts  --      1.9917                 1.9305                12.7838
 IR Inten    --    376.7608                96.7839               745.7000

                     64                     65                     66
                      A                      A                      A
 Frequencies --   1643.7607              3009.1299              3011.9955
 Red. masses --      1.0869                 1.0511                 1.0459
 Frc consts  --      1.7303                 5.6078                 5.5904
 IR Inten    --     35.2061               125.5760                47.1080

                     67                     68                     69
                      A                      A                      A
 Frequencies --   3014.6764              3075.0199              3078.5101
 Red. masses --      1.0513                 1.0939                 1.0392
 Frc consts  --      5.6292                 6.0946                 5.8026
 IR Inten    --    174.9119                72.7922                53.0294

                     70                     71                     72
                      A                      A                      A
 Frequencies --   3079.6637              3091.1788              3096.6476
 Red. masses --      1.0788                 1.0369                 1.0886
 Frc consts  --      6.0286                 5.8378                 6.1503
 IR Inten    --     29.3092                 9.3823                42.4200

                     73                     74                     75
                      A                      A                      A
 Frequencies --   3120.4020              3160.1386              3163.9259
 Red. masses --      1.1013                 1.1036                 1.1000
 Frc consts  --      6.3182                 6.4932                 6.4877
 IR Inten    --     33.1384                 8.5592                19.1548

                     76                     77                     78
                      A                      A                      A
 Frequencies --   3168.0972              3172.8093              3179.2074
 Red. masses --      1.0976                 1.1028                 1.1011
 Frc consts  --      6.4909                 6.5407                 6.5570
 IR Inten    --     13.0492                13.2275                 4.8829

                     79                     80                     81
                      A                      A                      A
 Frequencies --   3185.4891              3511.9331              3589.6617
 Red. masses --      1.1064                 1.0521                 1.0958
 Frc consts  --      6.6150                 7.6454                 8.3191
 IR Inten    --      6.9406                29.3434                53.9793

 - Thermochemistry -
 -------------------
 Temperature   298.150 Kelvin.  Pressure   1.00000 Atm.
 Atom     1 has atomic number  6 and mass  12.00000

 Molecular mass:   192.10294 amu.
 Principal axes and moments of inertia in atomic units:
                           1         2         3
     Eigenvalues --  1511.677833572.753133759.53484
           X            0.99878  -0.04474  -0.02109
           Y            0.04062   0.98524  -0.16632
           Z            0.02822   0.16526   0.98585
 This molecule is an asymmetric top.
 Rotational symmetry number  1.
 Warning -- assumption of classical behavior for rotation
           may cause significant error
 Rotational temperatures (Kelvin)      0.05730     0.02424     0.02304
 Rotational constants (GHZ):           1.19387     0.50514     0.48004
    1 imaginary frequencies ignored.
 Zero-point vibrational energy     658592.3 (Joules/Mol)
                                  157.40734 (Kcal/Mol)
 Warning -- explicit consideration of  24 degrees of freedom as
           vibrations may cause significant error
 Vibrational temperatures:     49.68    76.34   124.54   144.72   201.69
          (Kelvin)            221.40   236.00   259.50   277.79   292.89
                              343.58   360.78   421.07   424.08   447.25
                              474.82   484.18   497.52   552.38   598.01
                              666.57   736.93   824.27   871.06  1030.57
                             1066.49  1155.31  1311.28  1419.73  1478.14
                             1499.51  1524.57  1544.45  1552.92  1557.68
                             1568.89  1621.69  1628.77  1650.88  1688.57
                             1823.09  1843.43  1893.38  1941.68  2017.19
                             2033.76  2046.53  2072.35  2074.97  2108.73
                             2119.29  2128.86  2133.07  2134.89  2147.14
                             2155.61  2157.01  2160.66  2174.80  2195.98
                             2204.18  2328.26  2365.01  4329.47  4333.59
                             4337.45  4424.27  4429.29  4430.95  4447.52
                             4455.39  4489.56  4546.73  4552.18  4558.19
                             4564.96  4574.17  4583.21  5052.89  5164.72

 Zero-point correction=                           0.250845 (Hartree/Particle)
 Thermal correction to Energy=                    0.266101
 Thermal correction to Enthalpy=                  0.267045
 Thermal correction to Gibbs Free Energy=         0.208696
 Sum of electronic and zero-point Energies=           -959.762418
 Sum of electronic and thermal Energies=              -959.747162
 Sum of electronic and thermal Enthalpies=            -959.746217
 Sum of electronic and thermal Free Energies=         -959.804566

                     E (Thermal)             CV                S
                      KCal/Mol        Cal/Mol-Kelvin    Cal/Mol-Kelvin
 Total                  166.981             54.370            122.805
 Electronic               0.000              0.000              0.000
 Translational            0.889              2.981             41.664
 Rotational               0.889              2.981             31.385
 Vibrational            165.203             48.408             49.755
 Vibration     1          0.594              1.983              5.550
 Vibration     2          0.596              1.976              4.700
 Vibration     3          0.601              1.959              3.736
 Vibration     4          0.604              1.949              3.443
 Vibration     5          0.615              1.913              2.801
 Vibration     6          0.619              1.898              2.624
 Vibration     7          0.623              1.887              2.503
 Vibration     8          0.629              1.866              2.325
 Vibration     9          0.635              1.849              2.198
 Vibration    10          0.639              1.835              2.101
 Vibration    11          0.657              1.781              1.812
 Vibration    12          0.663              1.761              1.725
 Vibration    13          0.688              1.687              1.459
 Vibration    14          0.689              1.684              1.447
 Vibration    15          0.700              1.653              1.358
 Vibration    16          0.713              1.616              1.260
 Vibration    17          0.717              1.603              1.229
 Vibration    18          0.724              1.584              1.185
 Vibration    19          0.753              1.504              1.024
 Vibration    20          0.779              1.436              0.907
 Vibration    21          0.821              1.331              0.757
 Vibration    22          0.867              1.223              0.628
 Vibration    23          0.929              1.090              0.499
 Vibration    24          0.964              1.020              0.440

 Optimization completed.
    -- Stationary point found.
 Normal termination of Gaussian 16 at Sun Feb 28 16:18:21 2021.
