 Gaussian 16, Revision A.03,
 Gaussian 16:  ES64L-G16RevA.03 25-Dec-2016

 ----------------------------------------------------------------------
 # wB97XD def2tzvp, opt=(ts, noeigen, calcfc, maxcycles=70, maxstep=3),
  freq=noraman, scrf=(iefpcm, solvent=water)
 ----------------------------------------------------------------------

 ------------------------
 0_iteration/TS-980-0.out
 ------------------------
 Symbolic Z-matrix:
 Charge =  0 Multiplicity = 1

 SCF Done:  E(RwB97XD) =  -1360.85065798     A.U. after   15 cycles
 SCF Done:  E(RwB97XD) =  -1360.85021902     A.U. after   11 cycles
 SCF Done:  E(RwB97XD) =  -1360.84981265     A.U. after   11 cycles
 SCF Done:  E(RwB97XD) =  -1360.84943963     A.U. after   11 cycles
 SCF Done:  E(RwB97XD) =  -1360.84910040     A.U. after   11 cycles
 SCF Done:  E(RwB97XD) =  -1360.84879595     A.U. after   11 cycles
 SCF Done:  E(RwB97XD) =  -1360.84852826     A.U. after   11 cycles
 SCF Done:  E(RwB97XD) =  -1360.84830046     A.U. after   11 cycles
 SCF Done:  E(RwB97XD) =  -1360.84812938     A.U. after   12 cycles
 SCF Done:  E(RwB97XD) =  -1360.84810245     A.U. after   12 cycles
 SCF Done:  E(RwB97XD) =  -1360.87046064     A.U. after   11 cycles
 SCF Done:  E(RwB97XD) =  -1360.87051742     A.U. after   11 cycles
 SCF Done:  E(RwB97XD) =  -1360.87052444     A.U. after   11 cycles
 SCF Done:  E(RwB97XD) =  -1360.87048091     A.U. after   11 cycles
 SCF Done:  E(RwB97XD) =  -1360.87052741     A.U. after   11 cycles
 SCF Done:  E(RwB97XD) =  -1360.87052771     A.U. after   10 cycles
 SCF Done:  E(RwB97XD) =  -1360.87052811     A.U. after    9 cycles
 SCF Done:  E(RwB97XD) =  -1360.87052803     A.U. after    9 cycles
 SCF Done:  E(RwB97XD) =  -1360.87052809     A.U. after    7 cycles
 Optimization completed.
    -- Stationary point found.
 Normal termination of Gaussian 16 at Fri Mar 26 13:41:16 2021.

 ---------------------------------------------------------------------
 #N Geom=AllCheck Guess=TCheck SCRF=Check GenChk RwB97XD/def2TZVP Freq
 ---------------------------------------------------------------------

 Structure from the checkpoint file:  "/beegfs/scratch/user/q/tla25/Gau-96255.chk"
 ------------------------
 0_iteration/TS-980-0.out
 ------------------------
 Charge =  0 Multiplicity = 1

                         Standard orientation:
 ---------------------------------------------------------------------
 Center     Atomic      Atomic             Coordinates (Angstroms)
 Number     Number       Type             X           Y           Z
 ---------------------------------------------------------------------
      1          6           0        0.122182   -0.932424   -0.330396
      2          6           0        1.538834   -0.684116   -0.231107
      3          8           0        2.419603   -1.508914   -0.415912
      4          6           0       -0.795083    0.105600   -0.290623
      5          6           0       -0.846590   -0.001084    2.501347
      6          1           0       -0.571701    0.445612    3.456227
      7          1           0       -1.850319   -0.414696    2.569556
      8          1           0       -0.142316   -0.800702    2.265950
      9          7           0       -0.796405    0.975072    1.424190
     10          1           0       -1.545518    1.656336    1.468167
     11          1           0        0.095515    1.457633    1.398427
     12         17           0       -2.489275   -0.350136   -0.400121
     13         17           0       -0.544197    1.611386   -1.234044
     14          6           0       -0.318863   -2.376470   -0.364135
     15          1           0       -0.899209   -2.613768   -1.258626
     16          1           0        0.567487   -3.007455   -0.365416
     17          1           0       -0.924901   -2.651968    0.502378
     18          8           0        1.846314    0.577995    0.157225
     19          6           0        3.228135    0.905118    0.229574
     20          1           0        3.711210    0.768100   -0.737895
     21          1           0        3.269570    1.951505    0.521020
     22          1           0        3.735023    0.290245    0.973224
 ---------------------------------------------------------------------

 SCF Done:  E(RwB97XD) =  -1360.87052809     A.U. after    1 cycles

 The electronic state is 1-A.
 Alpha  occ. eigenvalues -- -101.71190-101.70190 -19.28750 -19.21687 -14.49119
 Alpha  occ. eigenvalues --  -10.44791 -10.40149 -10.32871 -10.31883 -10.27493
 Alpha  occ. eigenvalues --  -10.27281  -9.59781  -9.58785  -7.34446  -7.33554
 Alpha  occ. eigenvalues --   -7.33512  -7.33446  -7.32551  -7.32524  -1.20084
 Alpha  occ. eigenvalues --   -1.10381  -1.05473  -1.00293  -0.93022  -0.88833
 Alpha  occ. eigenvalues --   -0.82002  -0.79272  -0.76677  -0.69809  -0.64520
 Alpha  occ. eigenvalues --   -0.63268  -0.60049  -0.58437  -0.57103  -0.56801
 Alpha  occ. eigenvalues --   -0.54980  -0.53428  -0.52091  -0.49670  -0.48537
 Alpha  occ. eigenvalues --   -0.47836  -0.47089  -0.46220  -0.45674  -0.44440
 Alpha  occ. eigenvalues --   -0.42296  -0.41317  -0.39466  -0.38759  -0.37914
 Alpha  occ. eigenvalues --   -0.35680  -0.27899
 Alpha virt. eigenvalues --    0.03811   0.06296   0.09527   0.10578   0.13371
 Alpha virt. eigenvalues --    0.13811   0.16052   0.16122   0.16592   0.17048
 Alpha virt. eigenvalues --    0.18744   0.20095   0.20463   0.20879   0.21436

 Mulliken charges:
               1
     1  C   -0.341649
     2  C    0.433183
     3  O   -0.496700
     4  C    0.230988
     5  C   -0.298426
     6  H    0.162571
     7  H    0.158815
     8  H    0.157399
     9  N   -0.328675
    10  H    0.291566
    11  H    0.287294
    12  Cl  -0.060170
    13  Cl  -0.091785
    14  C   -0.375891
    15  H    0.128080
    16  H    0.133913
    17  H    0.127579
    18  O   -0.321458
    19  C   -0.197028
    20  H    0.131437
    21  H    0.139553
    22  H    0.129403
 Sum of Mulliken charges =  -0.00000

 Dipole moment (field-independent basis, Debye):
    X=             -2.7919    Y=              4.6983    Z=              6.1398  Tot=              8.2199
 Quadrupole moment (field-independent basis, Debye-Ang):
   XX=            -81.7843   YY=            -81.0123   ZZ=            -72.7463
   XY=              8.8814   XZ=             -1.6744   YZ=              3.0247

  Exact polarizability: 183.201 -10.896 163.069  -7.462   5.665 142.154
 Approx polarizability: 145.800  -8.581 138.002  -5.229   3.973 119.872

 ******    1 imaginary frequencies (negative Signs) ******

                      1                      2                      3
                      A                      A                      A
 Frequencies --   -377.5889                61.2304                73.0682
 Red. masses --      5.8600                 3.3354                 4.9177
 Frc consts  --      0.4922                 0.0074                 0.0155
 IR Inten    --    733.5561                 1.9672                 2.0573

                      4                      5                      6
                      A                      A                      A
 Frequencies --     95.9581               117.9435               122.3480
 Red. masses --      2.5250                 2.8528                 1.0536
 Frc consts  --      0.0137                 0.0234                 0.0093
 IR Inten    --      4.4955                14.9490                 0.5049

                      7                      8                      9
                      A                      A                      A
 Frequencies --    139.3830               155.1840               170.3614
 Red. masses --      3.2217                 1.3253                 1.3627
 Frc consts  --      0.0369                 0.0188                 0.0233
 IR Inten    --      3.1933                 1.3437                 1.1181

                     10                     11                     12
                      A                      A                      A
 Frequencies --    185.1888               203.5133               243.7670
 Red. masses --      3.3256                 3.2951                 5.2669
 Frc consts  --      0.0672                 0.0804                 0.1844
 IR Inten    --      6.3328                 6.7875                 2.7756

                     13                     14                     15
                      A                      A                      A
 Frequencies --    283.3492               284.2544               321.2410
 Red. masses --      5.4367                 4.9747                 3.9898
 Frc consts  --      0.2572                 0.2368                 0.2426
 IR Inten    --      7.9730                13.6418                21.7895

                     16                     17                     18
                      A                      A                      A
 Frequencies --    338.7598               370.3089               427.0992
 Red. masses --      4.5970                 4.6405                11.7984
 Frc consts  --      0.3108                 0.3749                 1.2680
 IR Inten    --     17.6106                24.0077                29.5924

                     19                     20                     21
                      A                      A                      A
 Frequencies --    483.3573               574.0327               657.1339
 Red. masses --      6.8531                 4.4798                 1.7840
 Frc consts  --      0.9434                 0.8697                 0.4539
 IR Inten    --     74.6880                90.1599                 0.8037

                     22                     23                     24
                      A                      A                      A
 Frequencies --    736.9778               791.4745               813.8448
 Red. masses --      2.8959                 8.3382                 6.3275
 Frc consts  --      0.9267                 3.0775                 2.4693
 IR Inten    --     74.3243                54.4416               160.8797

                     25                     26                     27
                      A                      A                      A
 Frequencies --    887.0962               990.1225              1020.8822
 Red. masses --      4.1847                 1.4603                 2.0456
 Frc consts  --      1.9402                 0.8435                 1.2561
 IR Inten    --     79.6182               111.7578               133.6470

                     28                     29                     30
                      A                      A                      A
 Frequencies --   1046.6698              1054.1936              1072.8108
 Red. masses --      1.2130                 1.7563                 1.3642
 Frc consts  --      0.7829                 1.1500                 0.9251
 IR Inten    --     89.9397               109.8811                 5.9204

                     31                     32                     33
                      A                      A                      A
 Frequencies --   1088.6360              1172.5342              1181.5929
 Red. masses --      4.9379                 5.8047                 1.2922
 Frc consts  --      3.4479                 4.7020                 1.0629
 IR Inten    --     41.7838               320.2729                 4.7829

                     34                     35                     36
                      A                      A                      A
 Frequencies --   1213.1652              1217.3589              1337.0781
 Red. masses --      1.4092                 1.5912                 2.9855
 Frc consts  --      1.2220                 1.3894                 3.1447
 IR Inten    --     30.5687               124.7089               522.5958

                     37                     38                     39
                      A                      A                      A
 Frequencies --   1347.0697              1404.8105              1432.5227
 Red. masses --      1.5835                 1.5649                 2.1956
 Frc consts  --      1.6929                 1.8196                 2.6547
 IR Inten    --    155.0460                67.7311               554.7269

                     40                     41                     42
                      A                      A                      A
 Frequencies --   1459.4968              1480.7344              1482.0590
 Red. masses --      1.3751                 1.2445                 1.0443
 Frc consts  --      1.7258                 1.6077                 1.3514
 IR Inten    --     93.3820                42.8979                12.2190

                     43                     44                     45
                      A                      A                      A
 Frequencies --   1486.9600              1492.0064              1494.7160
 Red. masses --      1.0482                 1.0507                 1.0492
 Frc consts  --      1.3655                 1.3781                 1.3811
 IR Inten    --     18.5723                21.1865                27.2726

                     46                     47                     48
                      A                      A                      A
 Frequencies --   1496.2933              1500.7308              1632.2702
 Red. masses --      1.0712                 1.0595                 1.0973
 Frc consts  --      1.4130                 1.4060                 1.7224
 IR Inten    --     83.2777                43.4978                90.2088

                     49                     50                     51
                      A                      A                      A
 Frequencies --   1701.2508              3043.2898              3064.5476
 Red. masses --     10.4656                 1.0394                 1.0307
 Frc consts  --     17.8465                 5.6716                 5.7030
 IR Inten    --   1021.3059                73.1218                57.8637

                     52                     53                     54
                      A                      A                      A
 Frequencies --   3066.5563              3095.3541              3141.4860
 Red. masses --      1.0338                 1.1025                 1.1069
 Frc consts  --      5.7279                 6.2240                 6.4364
 IR Inten    --     29.3984                39.5496                35.3358

                     55                     56                     57
                      A                      A                      A
 Frequencies --   3142.6676              3156.3145              3170.9526
 Red. masses --      1.1037                 1.0968                 1.1053
 Frc consts  --      6.4223                 6.4378                 6.5483
 IR Inten    --      8.0857                 8.9093                10.8590

                     58                     59                     60
                      A                      A                      A
 Frequencies --   3173.7541              3516.8796              3608.4075
 Red. masses --      1.1056                 1.0504                 1.0977
 Frc consts  --      6.5614                 7.6546                 8.4208
 IR Inten    --     22.2416                54.6236                91.6946

 - Thermochemistry -
 -------------------
 Temperature   298.150 Kelvin.  Pressure   1.00000 Atm.
 Atom     1 has atomic number  6 and mass  12.00000

 Molecular mass:   199.01668 amu.
 Principal axes and moments of inertia in atomic units:
                           1         2         3
     Eigenvalues --  1708.957102867.382993142.97377
           X            0.99920   0.03717  -0.01478
           Y           -0.03538   0.99366   0.10670
           Z            0.01865  -0.10609   0.99418
 This molecule is an asymmetric top.
 Rotational symmetry number  1.
 Warning -- assumption of classical behavior for rotation
           may cause significant error
 Rotational temperatures (Kelvin)      0.05068     0.03021     0.02756
 Rotational constants (GHZ):           1.05605     0.62940     0.57421
    1 imaginary frequencies ignored.
 Zero-point vibrational energy     451728.2 (Joules/Mol)
                                  107.96562 (Kcal/Mol)
 Warning -- explicit consideration of  19 degrees of freedom as
           vibrations may cause significant error
 Vibrational temperatures:     88.10   105.13   138.06   169.69   176.03
          (Kelvin)            200.54   223.28   245.11   266.45   292.81
                              350.73   407.68   408.98   462.19   487.40
                              532.79   614.50   695.44   825.91   945.47
                             1060.35  1138.76  1170.94  1276.33  1424.57
                             1468.82  1505.92  1516.75  1543.54  1566.30
                             1687.02  1700.05  1745.47  1751.51  1923.76
                             1938.13  2021.21  2061.08  2099.89  2130.45
                             2132.35  2139.40  2146.66  2150.56  2152.83
                             2159.22  2348.47  2447.72  4378.62  4409.20
                             4412.09  4453.52  4519.90  4521.60  4541.23
                             4562.29  4566.32  5060.01  5191.69

 Zero-point correction=                           0.172054 (Hartree/Particle)
 Thermal correction to Energy=                    0.185622
 Thermal correction to Enthalpy=                  0.186566
 Thermal correction to Gibbs Free Energy=         0.131545
 Sum of electronic and zero-point Energies=          -1360.698474
 Sum of electronic and thermal Energies=             -1360.684906
 Sum of electronic and thermal Enthalpies=           -1360.683962
 Sum of electronic and thermal Free Energies=        -1360.738983

                     E (Thermal)             CV                S
                      KCal/Mol        Cal/Mol-Kelvin    Cal/Mol-Kelvin
 Total                  116.480             46.305            115.802
 Electronic               0.000              0.000              0.000
 Translational            0.889              2.981             41.769
 Rotational               0.889              2.981             31.111
 Vibrational            114.702             40.344             42.922
 Vibration     1          0.597              1.973              4.417
 Vibration     2          0.599              1.967              4.069
 Vibration     3          0.603              1.952              3.535
 Vibration     4          0.608              1.934              3.134
 Vibration     5          0.610              1.930              3.063
 Vibration     6          0.615              1.914              2.812
 Vibration     7          0.620              1.897              2.608
 Vibration     8          0.625              1.879              2.431
 Vibration     9          0.631              1.860              2.275
 Vibration    10          0.639              1.835              2.101
 Vibration    11          0.659              1.773              1.775
 Vibration    12          0.682              1.705              1.513
 Vibration    13          0.683              1.703              1.508
 Vibration    14          0.707              1.633              1.304
 Vibration    15          0.719              1.598              1.218
 Vibration    16          0.742              1.533              1.079
 Vibration    17          0.789              1.411              0.868
 Vibration    18          0.840              1.287              0.701
 Vibration    19          0.930              1.087              0.497

 Optimization completed.
    -- Stationary point found.
 Normal termination of Gaussian 16 at Fri Mar 26 14:03:38 2021.
