 Gaussian 16, Revision A.03,
 Gaussian 16:  ES64L-G16RevA.03 25-Dec-2016

 ----------------------------------------------------------------------
 # wB97XD def2tzvp, opt=(ts, noeigen, calcfc, maxcycles=70, maxstep=8),
  freq=noraman, scrf=(iefpcm, solvent=water)
 ----------------------------------------------------------------------

 ------------------------
 1_iteration/TS-988-1.out
 ------------------------
 Symbolic Z-matrix:
 Charge =  0 Multiplicity = 1

 SCF Done:  E(RwB97XD) =  -3895.15871552     A.U. after   15 cycles
 SCF Done:  E(RwB97XD) =  -3895.16074554     A.U. after   13 cycles
 SCF Done:  E(RwB97XD) =  -3895.16234789     A.U. after   13 cycles
 SCF Done:  E(RwB97XD) =  -3895.16301090     A.U. after   13 cycles
 SCF Done:  E(RwB97XD) =  -3895.16309446     A.U. after   12 cycles
 SCF Done:  E(RwB97XD) =  -3895.16310175     A.U. after   11 cycles
 SCF Done:  E(RwB97XD) =  -3895.16309015     A.U. after   11 cycles
 SCF Done:  E(RwB97XD) =  -3895.16306981     A.U. after   11 cycles
 SCF Done:  E(RwB97XD) =  -3895.16310142     A.U. after   10 cycles
 SCF Done:  E(RwB97XD) =  -3895.16310192     A.U. after    9 cycles
 SCF Done:  E(RwB97XD) =  -3895.16310238     A.U. after    9 cycles
 SCF Done:  E(RwB97XD) =  -3895.16310214     A.U. after    7 cycles
 SCF Done:  E(RwB97XD) =  -3895.16310188     A.U. after    8 cycles
 SCF Done:  E(RwB97XD) =  -3895.16310199     A.U. after    7 cycles
 Optimization completed.
    -- Stationary point found.
 Normal termination of Gaussian 16 at Sun Feb 28 14:44:30 2021.

 ---------------------------------------------------------------------
 #N Geom=AllCheck Guess=TCheck SCRF=Check GenChk RwB97XD/def2TZVP Freq
 ---------------------------------------------------------------------

 Structure from the checkpoint file:  "/beegfs/scratch/user/q/tla25/Gau-114025.chk"
 ------------------------
 1_iteration/TS-988-1.out
 ------------------------
 Charge =  0 Multiplicity = 1

                         Standard orientation:
 ---------------------------------------------------------------------
 Center     Atomic      Atomic             Coordinates (Angstroms)
 Number     Number       Type             X           Y           Z
 ---------------------------------------------------------------------
      1          6           0       -0.055723   -0.415832   -0.250699
      2          6           0        1.207762   -1.125905   -0.160453
      3          8           0        1.356560   -2.322964   -0.289649
      4          6           0       -0.175395    0.961890   -0.317981
      5          6           0       -0.212592    1.095486    2.520784
      6          1           0       -1.276888    1.320364    2.548193
      7          1           0       -0.077478    0.021264    2.390950
      8          1           0        0.244433    1.396473    3.463466
      9          7           0        0.396580    1.777269    1.389493
     10          1           0        1.400485    1.636840    1.364124
     11          1           0        0.201035    2.771659    1.376435
     12         17           0       -1.771090    1.657467   -0.434407
     13         17           0        0.952951    1.886083   -1.327390
     14         35           0       -1.582725   -1.525254   -0.062096
     15          8           0        2.232298   -0.307524    0.140191
     16          6           0        3.528488   -0.899692    0.184171
     17          1           0        3.772819   -1.361573   -0.771821
     18          1           0        4.215739   -0.084879    0.393841
     19          1           0        3.581454   -1.649246    0.973003
 ---------------------------------------------------------------------

 SCF Done:  E(RwB97XD) =  -3895.16310199     A.U. after    1 cycles

 The electronic state is 1-A.
 Alpha  occ. eigenvalues -- -483.13136-101.72039-101.71255 -62.67962 -56.47093
 Alpha  occ. eigenvalues --  -56.46716 -56.46711 -19.29855 -19.23032 -14.48816
 Alpha  occ. eigenvalues --  -10.46124 -10.41941 -10.33377 -10.32931 -10.31945
 Alpha  occ. eigenvalues --   -9.60617  -9.59838  -8.82077  -7.35307  -7.34528
 Alpha  occ. eigenvalues --   -7.34379  -7.34332  -7.33589  -7.33561  -6.64274
 Alpha  occ. eigenvalues --   -6.63065  -6.63052  -2.74656  -2.74300  -2.74290
 Alpha  occ. eigenvalues --   -2.73313  -2.73313  -1.21487  -1.11916  -1.05621
 Alpha  occ. eigenvalues --   -1.01391  -0.94147  -0.92275  -0.85118  -0.80220
 Alpha  occ. eigenvalues --   -0.79180  -0.71336  -0.65028  -0.63688  -0.60952
 Alpha  occ. eigenvalues --   -0.58897  -0.58064  -0.57488  -0.55290  -0.54756
 Alpha  occ. eigenvalues --   -0.52635  -0.49422  -0.48854  -0.48349  -0.47136
 Alpha  occ. eigenvalues --   -0.45465  -0.43293  -0.42386  -0.40779  -0.40609
 Alpha  occ. eigenvalues --   -0.38991  -0.38690  -0.37877  -0.35931  -0.29012
 Alpha virt. eigenvalues --    0.01560   0.05394   0.05976   0.10424   0.12498
 Alpha virt. eigenvalues --    0.13712   0.14534   0.15767   0.16490   0.17033
 Alpha virt. eigenvalues --    0.18975   0.19968   0.20244   0.20799   0.21039

 Mulliken charges:
               1
     1  C   -0.337405
     2  C    0.428716
     3  O   -0.455203
     4  C    0.215212
     5  C   -0.292319
     6  H    0.157865
     7  H    0.155570
     8  H    0.161578
     9  N   -0.362355
    10  H    0.287263
    11  H    0.292412
    12  Cl  -0.029138
    13  Cl  -0.053331
    14  Br  -0.087204
    15  O   -0.304229
    16  C   -0.195274
    17  H    0.137258
    18  H    0.144862
    19  H    0.135720
 Sum of Mulliken charges =  -0.00000

 Dipole moment (field-independent basis, Debye):
    X=              2.8210    Y=              7.2084    Z=              5.3737  Tot=              9.4232
 Quadrupole moment (field-independent basis, Debye-Ang):
   XX=            -81.2588   YY=            -95.0407   ZZ=            -83.6136
   XY=              2.7131   XZ=              2.0846   YZ=              5.9476

  Exact polarizability: 177.710   1.269 196.368  -3.213   8.026 145.060
 Approx polarizability: 147.190   3.035 161.667  -2.684   4.915 124.248

 ******    1 imaginary frequencies (negative Signs) ******

                      1                      2                      3
                      A                      A                      A
 Frequencies --   -360.2797                45.9295                62.3700
 Red. masses --      5.8172                 5.0624                 2.6621
 Frc consts  --      0.4449                 0.0063                 0.0061
 IR Inten    --    739.9851                 5.3332                 2.1154

                      4                      5                      6
                      A                      A                      A
 Frequencies --     69.7193                96.6245               106.2890
 Red. masses --      4.0994                 3.5609                 3.6580
 Frc consts  --      0.0117                 0.0196                 0.0243
 IR Inten    --      5.4099                 6.0014                 3.8310

                      7                      8                      9
                      A                      A                      A
 Frequencies --    151.5274               158.2567               173.6259
 Red. masses --      1.8817                 1.3669                 5.5762
 Frc consts  --      0.0255                 0.0202                 0.0990
 IR Inten    --      0.7734                 2.3499                 0.5545

                     10                     11                     12
                      A                      A                      A
 Frequencies --    176.0848               199.3550               240.5587
 Red. masses --      2.9280                 3.2305                 4.4014
 Frc consts  --      0.0535                 0.0756                 0.1501
 IR Inten    --      1.0420                10.5415                 4.4815

                     13                     14                     15
                      A                      A                      A
 Frequencies --    268.5081               279.0762               300.9994
 Red. masses --     15.5753                 4.5235                 8.2838
 Frc consts  --      0.6616                 0.2076                 0.4422
 IR Inten    --      1.4649                17.1721                17.3048

                     16                     17                     18
                      A                      A                      A
 Frequencies --    322.5189               370.7311               443.1616
 Red. masses --      6.4698                 6.9582                13.9915
 Frc consts  --      0.3965                 0.5635                 1.6190
 IR Inten    --     27.8278                16.5674                 6.0046

                     19                     20                     21
                      A                      A                      A
 Frequencies --    505.3544               627.9557               742.3359
 Red. masses --      7.8819                 1.4904                 5.2075
 Frc consts  --      1.1860                 0.3463                 1.6907
 IR Inten    --    139.7718                 8.5158                61.9472

                     22                     23                     24
                      A                      A                      A
 Frequencies --    768.1378               786.8952               891.1571
 Red. masses --      9.3510                11.3615                 6.0884
 Frc consts  --      3.2508                 4.1450                 2.8488
 IR Inten    --    215.7198                54.9469                97.2870

                     25                     26                     27
                      A                      A                      A
 Frequencies --    943.7954               992.2132              1027.4032
 Red. masses --      6.6698                 1.0960                 1.1229
 Frc consts  --      3.5004                 0.6357                 0.6983
 IR Inten    --     12.2634                61.9917                81.9504

                     28                     29                     30
                      A                      A                      A
 Frequencies --   1085.8576              1116.7930              1181.1745
 Red. masses --      4.9038                 8.5005                 1.2824
 Frc consts  --      3.4067                 6.2466                 1.0541
 IR Inten    --     35.1010               143.4356                 2.1119

                     31                     32                     33
                      A                      A                      A
 Frequencies --   1205.2327              1218.6369              1290.9372
 Red. masses --      1.4293                 1.5489                 7.1882
 Frc consts  --      1.2232                 1.3553                 7.0579
 IR Inten    --     30.0843                71.8386               880.5987

                     34                     35                     36
                      A                      A                      A
 Frequencies --   1342.6188              1410.1709              1460.5625
 Red. masses --      1.3302                 6.5774                 1.2646
 Frc consts  --      1.4128                 7.7063                 1.5894
 IR Inten    --      0.9756               825.6063                32.8860

                     37                     38                     39
                      A                      A                      A
 Frequencies --   1478.7293              1483.4864              1489.8659
 Red. masses --      1.1753                 1.0624                 1.0420
 Frc consts  --      1.5142                 1.3776                 1.3628
 IR Inten    --     37.9572                15.9582                25.0550

                     40                     41                     42
                      A                      A                      A
 Frequencies --   1494.1049              1500.6472              1631.5261
 Red. masses --      1.0564                 1.0330                 1.0940
 Frc consts  --      1.3895                 1.3706                 1.7157
 IR Inten    --     23.5761                12.0532                71.2897

                     43                     44                     45
                      A                      A                      A
 Frequencies --   1731.4572              3067.2805              3070.3132
 Red. masses --     11.5859                 1.0331                 1.0303
 Frc consts  --     20.4645                 5.7266                 5.7227
 IR Inten    --    882.3949                27.7385                49.9189

                     46                     47                     48
                      A                      A                      A
 Frequencies --   3142.3484              3150.8153              3166.6199
 Red. masses --      1.1046                 1.1073                 1.1054
 Frc consts  --      6.4265                 6.4768                 6.5305
 IR Inten    --     11.2865                28.9887                11.5845

                     49                     50                     51
                      A                      A                      A
 Frequencies --   3182.8495              3516.2325              3607.3123
 Red. masses --      1.1062                 1.0506                 1.0975
 Frc consts  --      6.6026                 7.6530                 8.4142
 IR Inten    --     17.3503                63.4454                82.3077

 - Thermochemistry -
 -------------------
 Temperature   298.150 Kelvin.  Pressure   1.00000 Atm.
 Atom     1 has atomic number  6 and mass  12.00000

 Molecular mass:   262.91155 amu.
 Principal axes and moments of inertia in atomic units:
                           1         2         3
     Eigenvalues --  2856.345073146.745384541.76419
           X            0.92280  -0.38527   0.00359
           Y            0.38481   0.92208   0.04107
           Z           -0.01913  -0.03652   0.99915
 This molecule is an asymmetric top.
 Rotational symmetry number  1.
 Warning -- assumption of classical behavior for rotation
           may cause significant error
 Rotational temperatures (Kelvin)      0.03032     0.02752     0.01907
 Rotational constants (GHZ):           0.63184     0.57353     0.39737
    1 imaginary frequencies ignored.
 Zero-point vibrational energy     351559.5 (Joules/Mol)
                                   84.02473 (Kcal/Mol)
 Warning -- explicit consideration of  18 degrees of freedom as
           vibrations may cause significant error
 Vibrational temperatures:     66.08    89.74   100.31   139.02   152.93
          (Kelvin)            218.01   227.70   249.81   253.35   286.83
                              346.11   386.32   401.53   433.07   464.03
                              533.40   637.61   727.09   903.49  1068.06
                             1105.18  1132.17  1282.18  1357.91  1427.57
                             1478.20  1562.31  1606.82  1699.45  1734.06
                             1753.35  1857.37  1931.73  2028.92  2101.42
                             2127.56  2134.41  2143.58  2149.68  2159.10
                             2347.40  2491.18  4413.13  4417.50  4521.14
                             4533.32  4556.06  4579.41  5059.07  5190.12

 Zero-point correction=                           0.133902 (Hartree/Particle)
 Thermal correction to Energy=                    0.147476
 Thermal correction to Enthalpy=                  0.148421
 Thermal correction to Gibbs Free Energy=         0.091717
 Sum of electronic and zero-point Energies=          -3895.029200
 Sum of electronic and thermal Energies=             -3895.015626
 Sum of electronic and thermal Enthalpies=           -3895.014681
 Sum of electronic and thermal Free Energies=        -3895.071385

                     E (Thermal)             CV                S
                      KCal/Mol        Cal/Mol-Kelvin    Cal/Mol-Kelvin
 Total                   92.543             44.728            119.343
 Electronic               0.000              0.000              0.000
 Translational            0.889              2.981             42.599
 Rotational               0.889              2.981             32.079
 Vibrational             90.765             38.766             44.665
 Vibration     1          0.595              1.979              4.985
 Vibration     2          0.597              1.972              4.381
 Vibration     3          0.598              1.969              4.161
 Vibration     4          0.603              1.952              3.521
 Vibration     5          0.605              1.944              3.336
 Vibration     6          0.619              1.901              2.653
 Vibration     7          0.621              1.893              2.571
 Vibration     8          0.627              1.875              2.396
 Vibration     9          0.628              1.872              2.370
 Vibration    10          0.637              1.841              2.139
 Vibration    11          0.658              1.778              1.799
 Vibration    12          0.673              1.731              1.606
 Vibration    13          0.679              1.712              1.539
 Vibration    14          0.693              1.672              1.411
 Vibration    15          0.708              1.630              1.297
 Vibration    16          0.743              1.532              1.077
 Vibration    17          0.803              1.376              0.817
 Vibration    18          0.861              1.238              0.645

 Optimization completed.
    -- Stationary point found.
 Normal termination of Gaussian 16 at Sun Feb 28 15:05:05 2021.
