 Gaussian 16, Revision A.03,
 Gaussian 16:  ES64L-G16RevA.03 25-Dec-2016

 ----------------------------------------------------------------------
 # wB97XD def2tzvp, opt=(ts, noeigen, calcfc, maxcycles=70, maxstep=3),
  freq=noraman, scrf=(iefpcm, solvent=water)
 ----------------------------------------------------------------------

 ------------------------
 0_iteration/TS-939-0.out
 ------------------------
 Symbolic Z-matrix:
 Charge =  0 Multiplicity = 1

 SCF Done:  E(RwB97XD) =  -3415.69702492     A.U. after   16 cycles
 SCF Done:  E(RwB97XD) =  -3415.69696235     A.U. after   12 cycles
 SCF Done:  E(RwB97XD) =  -3415.69690669     A.U. after   12 cycles
 SCF Done:  E(RwB97XD) =  -3415.69683999     A.U. after   12 cycles
 SCF Done:  E(RwB97XD) =  -3415.69676024     A.U. after   12 cycles
 SCF Done:  E(RwB97XD) =  -3415.69667689     A.U. after   12 cycles
 SCF Done:  E(RwB97XD) =  -3415.69659846     A.U. after   12 cycles
 SCF Done:  E(RwB97XD) =  -3415.69655415     A.U. after   12 cycles
 SCF Done:  E(RwB97XD) =  -3415.69662292     A.U. after   12 cycles
 SCF Done:  E(RwB97XD) =  -3415.69670933     A.U. after   12 cycles
 SCF Done:  E(RwB97XD) =  -3415.69697042     A.U. after   12 cycles
 SCF Done:  E(RwB97XD) =  -3415.69700786     A.U. after   12 cycles
 SCF Done:  E(RwB97XD) =  -3415.69701948     A.U. after   12 cycles
 SCF Done:  E(RwB97XD) =  -3415.69702639     A.U. after   10 cycles
 SCF Done:  E(RwB97XD) =  -3415.69702908     A.U. after   10 cycles
 SCF Done:  E(RwB97XD) =  -3415.69702293     A.U. after   10 cycles
 SCF Done:  E(RwB97XD) =  -3415.69702851     A.U. after   11 cycles
 SCF Done:  E(RwB97XD) =  -3415.69702968     A.U. after   10 cycles
 SCF Done:  E(RwB97XD) =  -3415.69702980     A.U. after    9 cycles
 Optimization completed.
    -- Stationary point found.
 Normal termination of Gaussian 16 at Tue Apr 13 02:31:22 2021.

 ---------------------------------------------------------------------
 #N Geom=AllCheck Guess=TCheck SCRF=Check GenChk RwB97XD/def2TZVP Freq
 ---------------------------------------------------------------------

 Structure from the checkpoint file:  "/beegfs/scratch/user/q/tla25/Gau-324558.chk"
 ------------------------
 0_iteration/TS-939-0.out
 ------------------------
 Charge =  0 Multiplicity = 1

                         Standard orientation:
 ---------------------------------------------------------------------
 Center     Atomic      Atomic             Coordinates (Angstroms)
 Number     Number       Type             X           Y           Z
 ---------------------------------------------------------------------
      1          6           0       -1.061120    0.192582   -0.630203
      2          6           0       -1.903122   -0.906268   -0.168048
      3          8           0       -3.104452   -0.966255   -0.445005
      4          6           0        0.223262    0.400414   -0.179039
      5          6           0       -0.740310    1.606019    2.133938
      6          1           0       -1.677864    1.341380    1.644161
      7          1           0       -0.885916    1.600488    3.213405
      8          1           0       -0.435253    2.599333    1.813065
      9          7           0        0.270200    0.636652    1.733506
     10          1           0        1.208069    0.902160    2.013018
     11          1           0        0.062989   -0.282993    2.108475
     12         17           0        1.022636    1.874942   -0.680958
     13         35           0        1.616247   -1.049386   -0.200034
     14          6           0       -1.751183    1.238723   -1.477136
     15          1           0       -2.013979    2.138688   -0.913159
     16          1           0       -1.137347    1.547577   -2.323480
     17          1           0       -2.674078    0.811485   -1.861871
     18          7           0       -1.379087   -1.854400    0.683399
     19          1           0       -0.408092   -2.107782    0.598801
     20          1           0       -1.999316   -2.630371    0.849692
 ---------------------------------------------------------------------

 SCF Done:  E(RwB97XD) =  -3415.69702980     A.U. after    1 cycles

 The electronic state is 1-A.
 Alpha  occ. eigenvalues -- -483.13633-101.71502 -62.68487 -56.47595 -56.47250
 Alpha  occ. eigenvalues --  -56.47240 -19.20440 -14.49724 -14.43945 -10.44464
 Alpha  occ. eigenvalues --  -10.38377 -10.32081 -10.27654 -10.27072  -9.60085
 Alpha  occ. eigenvalues --   -8.82590  -7.34755  -7.33857  -7.33812  -6.64713
 Alpha  occ. eigenvalues --   -6.63624  -6.63594  -2.75092  -2.74796  -2.74771
 Alpha  occ. eigenvalues --   -2.73892  -2.73890  -1.13092  -1.05500  -0.99871
 Alpha  occ. eigenvalues --   -0.99028  -0.89280  -0.87293  -0.79476  -0.77258
 Alpha  occ. eigenvalues --   -0.71180  -0.64847  -0.63697  -0.60503  -0.58616
 Alpha  occ. eigenvalues --   -0.57747  -0.55466  -0.53264  -0.51278  -0.49939
 Alpha  occ. eigenvalues --   -0.48617  -0.48065  -0.47147  -0.45573  -0.45235
 Alpha  occ. eigenvalues --   -0.41686  -0.40627  -0.37891  -0.37837  -0.35892
 Alpha  occ. eigenvalues --   -0.33947  -0.27852
 Alpha virt. eigenvalues --    0.01741   0.04575   0.08845   0.10420   0.13196
 Alpha virt. eigenvalues --    0.14054   0.15669   0.16373   0.17084   0.18408
 Alpha virt. eigenvalues --    0.19397   0.19983   0.20080   0.21737   0.22273

 Mulliken charges:
               1
     1  C   -0.254086
     2  C    0.298365
     3  O   -0.517937
     4  C    0.143573
     5  C   -0.296437
     6  H    0.162838
     7  H    0.165743
     8  H    0.160388
     9  N   -0.312068
    10  H    0.296749
    11  H    0.283715
    12  Cl  -0.049014
    13  Br  -0.133110
    14  C   -0.376408
    15  H    0.124067
    16  H    0.129232
    17  H    0.137736
    18  N   -0.483341
    19  H    0.258181
    20  H    0.261817
 Sum of Mulliken charges =  -0.00000

 Dipole moment (field-independent basis, Debye):
    X=              4.9194    Y=              1.6717    Z=              6.5232  Tot=              8.3395
 Quadrupole moment (field-independent basis, Debye-Ang):
   XX=           -100.4208   YY=            -72.2393   ZZ=            -70.9145
   XY=             -3.4488   XZ=             -2.3124   YZ=              1.2306

  Exact polarizability: 193.051   2.864 165.848   9.943  -0.439 146.414
 Approx polarizability: 155.370   2.346 136.450   8.100  -2.156 123.756

 ******    1 imaginary frequencies (negative Signs) ******

                      1                      2                      3
                      A                      A                      A
 Frequencies --   -411.6217                72.1475                86.9640
 Red. masses --      5.5871                 4.1071                 3.9525
 Frc consts  --      0.5577                 0.0126                 0.0176
 IR Inten    --    524.7200                 6.6076                10.7064

                      4                      5                      6
                      A                      A                      A
 Frequencies --    104.2163               128.5631               146.4552
 Red. masses --      2.6675                 1.8559                 1.6492
 Frc consts  --      0.0171                 0.0181                 0.0208
 IR Inten    --     12.1806                 0.5322                 0.5516

                      7                      8                      9
                      A                      A                      A
 Frequencies --    166.6682               173.7652               212.8936
 Red. masses --      1.3400                 6.0059                 3.6245
 Frc consts  --      0.0219                 0.1068                 0.0968
 IR Inten    --      0.1260                 4.5526                 0.8405

                     10                     11                     12
                      A                      A                      A
 Frequencies --    222.1239               251.8954               290.7918
 Red. masses --      6.0479                 5.7867                 4.5230
 Frc consts  --      0.1758                 0.2163                 0.2253
 IR Inten    --     10.4424                36.0324                 8.9923

                     13                     14                     15
                      A                      A                      A
 Frequencies --    314.8094               334.2647               404.7577
 Red. masses --      3.4817                 4.5571                 4.1296
 Frc consts  --      0.2033                 0.3000                 0.3986
 IR Inten    --      9.3451                31.5838                 6.0494

                     16                     17                     18
                      A                      A                      A
 Frequencies --    492.6782               503.7663               543.3485
 Red. masses --      1.3280                 3.0480                 1.8912
 Frc consts  --      0.1899                 0.4557                 0.3290
 IR Inten    --     24.9351               133.1388               291.0380

                     19                     20                     21
                      A                      A                      A
 Frequencies --    580.5879               626.5709               675.0962
 Red. masses --      1.7839                 3.2903                 1.6029
 Frc consts  --      0.3543                 0.7611                 0.4304
 IR Inten    --     71.4145                77.1028                66.5248

                     22                     23                     24
                      A                      A                      A
 Frequencies --    772.1018               793.2700               857.0023
 Red. masses --      5.3995                 6.6504                 3.3102
 Frc consts  --      1.8965                 2.4657                 1.4324
 IR Inten    --    260.2339                90.3206                24.5224

                     25                     26                     27
                      A                      A                      A
 Frequencies --   1000.4585              1038.8071              1051.3596
 Red. masses --      1.1087                 1.6124                 1.1331
 Frc consts  --      0.6538                 1.0251                 0.7379
 IR Inten    --     55.6998               208.7506                81.6792

                     28                     29                     30
                      A                      A                      A
 Frequencies --   1070.1829              1081.3504              1097.3684
 Red. masses --      1.3718                 4.9175                 2.1027
 Frc consts  --      0.9257                 3.3879                 1.4919
 IR Inten    --      6.3117                51.4127               127.6556

                     31                     32                     33
                      A                      A                      A
 Frequencies --   1192.9907              1221.3248              1345.3857
 Red. masses --      2.7488                 1.4036                 1.3415
 Frc consts  --      2.3050                 1.2335                 1.4306
 IR Inten    --     17.4235                28.9106                26.6892

                     34                     35                     36
                      A                      A                      A
 Frequencies --   1374.2250              1408.7714              1445.2675
 Red. masses --      3.7628                 1.4704                 1.7769
 Frc consts  --      4.1867                 1.7194                 2.1868
 IR Inten    --    722.3767                40.5715               330.8306

                     37                     38                     39
                      A                      A                      A
 Frequencies --   1465.6611              1489.2506              1493.5736
 Red. masses --      1.6597                 1.0565                 1.0386
 Frc consts  --      2.1006                 1.3806                 1.3650
 IR Inten    --    173.1278                37.9183                45.9014

                     40                     41                     42
                      A                      A                      A
 Frequencies --   1499.4828              1502.4381              1615.9090
 Red. masses --      1.0379                 1.1329                 1.4247
 Frc consts  --      1.3749                 1.5067                 2.1919
 IR Inten    --     35.2939               115.0476               394.9630

                     43                     44                     45
                      A                      A                      A
 Frequencies --   1629.8914              1666.3118              3038.9756
 Red. masses --      1.0967                 3.8264                 1.0474
 Frc consts  --      1.7166                 6.2597                 5.6992
 IR Inten    --    114.6520               725.9948                75.9781

                     46                     47                     48
                      A                      A                      A
 Frequencies --   3071.5414              3108.3889              3149.6853
 Red. masses --      1.0331                 1.0922                 1.1046
 Frc consts  --      5.7423                 6.2179                 6.4564
 IR Inten    --     31.0622                36.5659                 7.1185

                     49                     50                     51
                      A                      A                      A
 Frequencies --   3164.7792              3173.4782              3516.1552
 Red. masses --      1.0979                 1.1056                 1.0501
 Frc consts  --      6.4787                 6.5604                 7.6489
 IR Inten    --      6.4709                 9.1892                52.2827

                     52                     53                     54
                      A                      A                      A
 Frequencies --   3581.8117              3604.6131              3693.0939
 Red. masses --      1.0478                 1.0974                 1.1002
 Frc consts  --      7.9202                 8.4007                 8.8407
 IR Inten    --     44.0572                79.5266               126.1679

 - Thermochemistry -
 -------------------
 Temperature   298.150 Kelvin.  Pressure   1.00000 Atm.
 Atom     1 has atomic number  6 and mass  12.00000

 Molecular mass:   227.96650 amu.
 Principal axes and moments of inertia in atomic units:
                           1         2         3
     Eigenvalues --  2011.521852634.994593269.50181
           X            0.99927   0.03376   0.01778
           Y           -0.03403   0.99930   0.01539
           Z           -0.01725  -0.01598   0.99972
 This molecule is an asymmetric top.
 Rotational symmetry number  1.
 Warning -- assumption of classical behavior for rotation
           may cause significant error
 Rotational temperatures (Kelvin)      0.04306     0.03287     0.02649
 Rotational constants (GHZ):           0.89720     0.68491     0.55199
    1 imaginary frequencies ignored.
 Zero-point vibrational energy     410003.7 (Joules/Mol)
                                   97.99324 (Kcal/Mol)
 Warning -- explicit consideration of  18 degrees of freedom as
           vibrations may cause significant error
 Vibrational temperatures:    103.80   125.12   149.94   184.97   210.72
          (Kelvin)            239.80   250.01   306.31   319.59   362.42
                              418.38   452.94   480.93   582.36   708.85
                              724.81   781.76   835.34   901.50   971.31
                             1110.88  1141.34  1233.04  1439.44  1494.61
                             1512.67  1539.75  1555.82  1578.87  1716.45
                             1757.21  1935.71  1977.20  2026.91  2079.42
                             2108.76  2142.70  2148.92  2157.42  2161.67
                             2324.93  2345.05  2397.45  4372.41  4419.26
                             4472.28  4531.69  4553.41  4565.93  5058.96
                             5153.43  5186.23  5313.54

 Zero-point correction=                           0.156162 (Hartree/Particle)
 Thermal correction to Energy=                    0.168480
 Thermal correction to Enthalpy=                  0.169424
 Thermal correction to Gibbs Free Energy=         0.117053
 Sum of electronic and zero-point Energies=          -3415.540868
 Sum of electronic and thermal Energies=             -3415.528550
 Sum of electronic and thermal Enthalpies=           -3415.527606
 Sum of electronic and thermal Free Energies=        -3415.579977

                     E (Thermal)             CV                S
                      KCal/Mol        Cal/Mol-Kelvin    Cal/Mol-Kelvin
 Total                  105.723             43.011            110.225
 Electronic               0.000              0.000              0.000
 Translational            0.889              2.981             42.174
 Rotational               0.889              2.981             31.228
 Vibrational            103.945             37.049             36.823
 Vibration     1          0.598              1.967              4.094
 Vibration     2          0.601              1.958              3.727
 Vibration     3          0.605              1.946              3.374
 Vibration     4          0.611              1.925              2.967
 Vibration     5          0.617              1.907              2.718
 Vibration     6          0.624              1.883              2.473
 Vibration     7          0.627              1.875              2.394
 Vibration     8          0.644              1.821              2.019
 Vibration     9          0.648              1.807              1.942
 Vibration    10          0.664              1.760              1.717
 Vibration    11          0.687              1.691              1.469
 Vibration    12          0.702              1.645              1.337
 Vibration    13          0.716              1.607              1.239
 Vibration    14          0.770              1.460              0.945
 Vibration    15          0.848              1.266              0.677
 Vibration    16          0.859              1.242              0.649
 Vibration    17          0.898              1.154              0.558
 Vibration    18          0.937              1.073              0.484

 Optimization completed.
    -- Stationary point found.
 Normal termination of Gaussian 16 at Tue Apr 13 02:38:29 2021.
