 Gaussian 16, Revision A.03,
 Gaussian 16:  ES64L-G16RevA.03 25-Dec-2016

 ----------------------------------------------------------------------
 # wB97XD def2tzvp, opt=(ts, noeigen, calcfc, maxcycles=70, maxstep=3),
  freq=noraman, scrf=(iefpcm, solvent=water)
 ----------------------------------------------------------------------

 ------------------------
 0_iteration/TS-947-0.out
 ------------------------
 Symbolic Z-matrix:
 Charge =  0 Multiplicity = 1

 SCF Done:  E(RwB97XD) =  -5949.98455214     A.U. after   15 cycles
 SCF Done:  E(RwB97XD) =  -5949.98489898     A.U. after   13 cycles
 SCF Done:  E(RwB97XD) =  -5949.98521503     A.U. after   13 cycles
 SCF Done:  E(RwB97XD) =  -5949.98554549     A.U. after   12 cycles
 SCF Done:  E(RwB97XD) =  -5949.98581315     A.U. after   12 cycles
 SCF Done:  E(RwB97XD) =  -5949.98610187     A.U. after   12 cycles
 SCF Done:  E(RwB97XD) =  -5949.98644304     A.U. after   13 cycles
 SCF Done:  E(RwB97XD) =  -5949.98687360     A.U. after   13 cycles
 SCF Done:  E(RwB97XD) =  -5949.98740184     A.U. after   13 cycles
 SCF Done:  E(RwB97XD) =  -5949.98800501     A.U. after   13 cycles
 SCF Done:  E(RwB97XD) =  -5949.99704739     A.U. after   12 cycles
 SCF Done:  E(RwB97XD) =  -5949.99725047     A.U. after   11 cycles
 SCF Done:  E(RwB97XD) =  -5949.99736505     A.U. after   12 cycles
 SCF Done:  E(RwB97XD) =  -5949.99737699     A.U. after   11 cycles
 SCF Done:  E(RwB97XD) =  -5949.99739069     A.U. after   11 cycles
 SCF Done:  E(RwB97XD) =  -5949.99739106     A.U. after   10 cycles
 SCF Done:  E(RwB97XD) =  -5949.99739155     A.U. after    9 cycles
 SCF Done:  E(RwB97XD) =  -5949.99739189     A.U. after    9 cycles
 SCF Done:  E(RwB97XD) =  -5949.99739190     A.U. after    9 cycles
 Optimization completed.
    -- Stationary point found.
 Normal termination of Gaussian 16 at Tue Apr 13 09:36:22 2021.

 ---------------------------------------------------------------------
 #N Geom=AllCheck Guess=TCheck SCRF=Check GenChk RwB97XD/def2TZVP Freq
 ---------------------------------------------------------------------

 Structure from the checkpoint file:  "/beegfs/scratch/user/q/tla25/Gau-224525.chk"
 ------------------------
 0_iteration/TS-947-0.out
 ------------------------
 Charge =  0 Multiplicity = 1

                         Standard orientation:
 ---------------------------------------------------------------------
 Center     Atomic      Atomic             Coordinates (Angstroms)
 Number     Number       Type             X           Y           Z
 ---------------------------------------------------------------------
      1          6           0        0.608863    0.354748   -0.118824
      2          6           0        0.605764    1.766762    0.266371
      3          8           0       -0.349734    2.252846    0.881043
      4          6           0       -0.546503   -0.392403   -0.054439
      5          6           0       -0.123403   -0.894533    2.733191
      6          1           0       -0.019739   -1.973307    2.634534
      7          1           0       -0.329603   -0.646867    3.775254
      8          1           0        0.813963   -0.417713    2.441400
      9          7           0       -1.172469   -0.421896    1.847871
     10          1           0       -1.332054    0.576485    1.947344
     11          1           0       -2.043269   -0.928891    1.947589
     12         17           0       -0.483437   -2.093983   -0.393722
     13         35           0       -2.205384    0.355573   -0.763275
     14         35           0        2.289538   -0.480340   -0.447121
     15          7           0        1.680948    2.519923   -0.045804
     16          1           0        2.458611    2.161930   -0.568231
     17          1           0        1.695337    3.476517    0.258616
 ---------------------------------------------------------------------

 SCF Done:  E(RwB97XD) =  -5949.99739190     A.U. after    1 cycles

 The electronic state is 1-A.
 Alpha  occ. eigenvalues -- -483.13827-483.13597-101.71983 -62.68670 -62.68423
 Alpha  occ. eigenvalues --  -56.47808 -56.47547 -56.47420 -56.47409 -56.47183
 Alpha  occ. eigenvalues --  -56.47174 -19.21681 -14.47766 -14.45068 -10.44865
 Alpha  occ. eigenvalues --  -10.39984 -10.32743 -10.31580  -9.60552  -8.82775
 Alpha  occ. eigenvalues --   -8.82536  -7.35238  -7.34317  -7.34270  -6.64992
 Alpha  occ. eigenvalues --   -6.64709  -6.63763  -6.63726  -6.63545  -6.63515
 Alpha  occ. eigenvalues --   -2.75362  -2.75094  -2.75019  -2.74990  -2.74758
 Alpha  occ. eigenvalues --   -2.74733  -2.73997  -2.73996  -2.73793  -2.73792
 Alpha  occ. eigenvalues --   -1.14448  -1.04144  -1.01052  -1.00058  -0.91833
 Alpha  occ. eigenvalues --   -0.89477  -0.82147  -0.78620  -0.73266  -0.65826
 Alpha  occ. eigenvalues --   -0.62992  -0.61773  -0.58133  -0.57254  -0.55069
 Alpha  occ. eigenvalues --   -0.54164  -0.52452  -0.50570  -0.48663  -0.47820
 Alpha  occ. eigenvalues --   -0.46802  -0.42652  -0.40865  -0.40505  -0.38900
 Alpha  occ. eigenvalues --   -0.37763  -0.37153  -0.35662  -0.34680  -0.28591
 Alpha virt. eigenvalues --    0.00861   0.04335   0.05862   0.11023   0.12588
 Alpha virt. eigenvalues --    0.13281   0.15062   0.16009   0.17260   0.17542
 Alpha virt. eigenvalues --    0.18406   0.20192   0.21110   0.22439   0.23419

 Mulliken charges:
               1
     1  C   -0.330551
     2  C    0.359846
     3  O   -0.523805
     4  C    0.217671
     5  C   -0.287694
     6  H    0.153619
     7  H    0.155706
     8  H    0.152519
     9  N   -0.365889
    10  H    0.282354
    11  H    0.286540
    12  Cl  -0.028167
    13  Br  -0.067121
    14  Br  -0.104399
    15  N   -0.456032
    16  H    0.278068
    17  H    0.277335
 Sum of Mulliken charges =  -0.00000

 Dipole moment (field-independent basis, Debye):
    X=              0.6725    Y=             -1.3062    Z=              3.5163  Tot=              3.8109
 Quadrupole moment (field-independent basis, Debye-Ang):
   XX=            -85.0494   YY=            -88.8021   ZZ=            -83.3463
   XY=             10.5406   XZ=             -5.2947   YZ=             -6.8540

  Exact polarizability: 201.820   5.397 174.669 -10.820  -5.935 152.738
 Approx polarizability: 163.177  -1.016 146.786  -9.786  -1.678 128.994

 ******    1 imaginary frequencies (negative Signs) ******

                      1                      2                      3
                      A                      A                      A
 Frequencies --   -381.6953                58.1720                70.8005
 Red. masses --      5.8189                 6.3221                 4.1573
 Frc consts  --      0.4995                 0.0126                 0.0123
 IR Inten    --    654.1510                 1.2552                 9.8164

                      4                      5                      6
                      A                      A                      A
 Frequencies --     92.1927               126.8646               136.4920
 Red. masses --      3.9163                 2.4168                 4.0531
 Frc consts  --      0.0196                 0.0229                 0.0445
 IR Inten    --      4.7720                15.6811                 4.1023

                      7                      8                      9
                      A                      A                      A
 Frequencies --    154.1639               170.7251               183.7853
 Red. masses --      3.2062                 3.8271                 1.5412
 Frc consts  --      0.0449                 0.0657                 0.0307
 IR Inten    --      3.3180                 6.6043               215.0211

                     10                     11                     12
                      A                      A                      A
 Frequencies --    196.0188               217.4185               238.4883
 Red. masses --      2.1390                 9.3109                 9.3501
 Frc consts  --      0.0484                 0.2593                 0.3133
 IR Inten    --     99.3399                12.0624                 0.4255

                     13                     14                     15
                      A                      A                      A
 Frequencies --    262.4195               277.4707               356.1231
 Red. masses --      5.2584                 4.0301                13.3905
 Frc consts  --      0.2134                 0.1828                 1.0006
 IR Inten    --     25.3479                 6.8073                 1.5272

                     16                     17                     18
                      A                      A                      A
 Frequencies --    417.1493               474.3215               559.8121
 Red. masses --      5.2636                 5.0186                 1.1697
 Frc consts  --      0.5397                 0.6652                 0.2160
 IR Inten    --     16.6483               130.4271                12.4210

                     19                     20                     21
                      A                      A                      A
 Frequencies --    596.2954               648.3185               729.1523
 Red. masses --      2.7070                 1.6405                 6.6697
 Frc consts  --      0.5671                 0.4063                 2.0893
 IR Inten    --     30.0725                69.4996               243.6651

                     22                     23                     24
                      A                      A                      A
 Frequencies --    782.8006               863.1820               975.0269
 Red. masses --      8.1435                 6.2275                 1.1059
 Frc consts  --      2.9401                 2.7338                 0.6194
 IR Inten    --     41.2100                63.2669               117.5409

                     25                     26                     27
                      A                      A                      A
 Frequencies --   1027.6222              1046.9026              1089.9198
 Red. masses --      1.6517                 1.7595                 4.4978
 Frc consts  --      1.0276                 1.1362                 3.1480
 IR Inten    --     31.9360                59.5723                34.0921

                     28                     29                     30
                      A                      A                      A
 Frequencies --   1102.5840              1190.2775              1347.0739
 Red. masses --      2.3577                 1.4234                 1.3266
 Frc consts  --      1.6888                 1.1881                 1.4183
 IR Inten    --      3.0298                20.3706                 6.0897

                     31                     32                     33
                      A                      A                      A
 Frequencies --   1390.5146              1413.4609              1459.3582
 Red. masses --      4.2363                 5.8836                 1.2819
 Frc consts  --      4.8260                 6.9257                 1.6086
 IR Inten    --    738.8370               670.3183                41.6466

                     34                     35                     36
                      A                      A                      A
 Frequencies --   1487.4628              1501.9044              1605.9347
 Red. masses --      1.0416                 1.0334                 1.4329
 Frc consts  --      1.3578                 1.3734                 2.1773
 IR Inten    --     19.3091                10.9134               245.2777

                     37                     38                     39
                      A                      A                      A
 Frequencies --   1632.3581              1675.9734              3059.2665
 Red. masses --      1.1533                 3.9847                 1.0336
 Frc consts  --      1.8106                 6.5945                 5.6995
 IR Inten    --    229.1253               460.2142                38.5519

                     40                     41                     42
                      A                      A                      A
 Frequencies --   3129.7620              3160.7971              3496.3394
 Red. masses --      1.1041                 1.1047                 1.0534
 Frc consts  --      6.3722                 6.5026                 7.5870
 IR Inten    --     14.7638                14.8425                54.4547

                     43                     44                     45
                      A                      A                      A
 Frequencies --   3608.4485              3632.1853              3760.6032
 Red. masses --      1.0949                 1.0454                 1.1059
 Frc consts  --      8.3998                 8.1255                 9.2149
 IR Inten    --    105.5584               112.9285               108.0941

 - Thermochemistry -
 -------------------
 Temperature   298.150 Kelvin.  Pressure   1.00000 Atm.
 Atom     1 has atomic number  6 and mass  12.00000

 Molecular mass:   291.86136 amu.
 Principal axes and moments of inertia in atomic units:
                           1         2         3
     Eigenvalues --  2416.867194098.032274723.51224
           X            0.99808   0.05788  -0.02227
           Y           -0.05906   0.99662  -0.05705
           Z            0.01890   0.05826   0.99812
 This molecule is an asymmetric top.
 Rotational symmetry number  1.
 Warning -- assumption of classical behavior for rotation
           may cause significant error
 Rotational temperatures (Kelvin)      0.03584     0.02114     0.01834
 Rotational constants (GHZ):           0.74673     0.44039     0.38208
    1 imaginary frequencies ignored.
 Zero-point vibrational energy     307475.8 (Joules/Mol)
                                   73.48848 (Kcal/Mol)
 Warning -- explicit consideration of  18 degrees of freedom as
           vibrations may cause significant error
 Vibrational temperatures:     83.70   101.87   132.64   182.53   196.38
          (Kelvin)            221.81   245.64   264.43   282.03   312.82
                              343.13   377.56   399.22   512.38   600.18
                              682.44   805.44   857.94   932.79  1049.09
                             1126.28  1241.93  1402.85  1478.52  1506.26
                             1568.15  1586.37  1712.54  1938.14  2000.64
                             2033.65  2099.69  2140.13  2160.91  2310.58
                             2348.60  2411.35  4401.60  4503.03  4547.68
                             5030.45  5191.75  5225.90  5410.67

 Zero-point correction=                           0.117111 (Hartree/Particle)
 Thermal correction to Energy=                    0.129848
 Thermal correction to Enthalpy=                  0.130792
 Thermal correction to Gibbs Free Energy=         0.076125
 Sum of electronic and zero-point Energies=          -5949.880281
 Sum of electronic and thermal Energies=             -5949.867544
 Sum of electronic and thermal Enthalpies=           -5949.866600
 Sum of electronic and thermal Free Energies=        -5949.921267

                     E (Thermal)             CV                S
                      KCal/Mol        Cal/Mol-Kelvin    Cal/Mol-Kelvin
 Total                   81.481             42.211            115.057
 Electronic               0.000              0.000              0.000
 Translational            0.889              2.981             42.911
 Rotational               0.889              2.981             32.215
 Vibrational             79.703             36.249             39.932
 Vibration     1          0.596              1.974              4.518
 Vibration     2          0.598              1.968              4.131
 Vibration     3          0.602              1.955              3.613
 Vibration     4          0.611              1.926              2.993
 Vibration     5          0.614              1.917              2.852
 Vibration     6          0.620              1.898              2.620
 Vibration     7          0.626              1.879              2.427
 Vibration     8          0.631              1.862              2.290
 Vibration     9          0.636              1.845              2.170
 Vibration    10          0.646              1.815              1.980
 Vibration    11          0.656              1.782              1.814
 Vibration    12          0.670              1.742              1.646
 Vibration    13          0.678              1.715              1.549
 Vibration    14          0.732              1.563              1.139
 Vibration    15          0.780              1.433              0.902
 Vibration    16          0.831              1.307              0.726
 Vibration    17          0.915              1.118              0.524
 Vibration    18          0.954              1.040              0.456

 Optimization completed.
    -- Stationary point found.
 Normal termination of Gaussian 16 at Tue Apr 13 09:42:56 2021.
