 Gaussian 16, Revision A.03,
 Gaussian 16:  ES64L-G16RevA.03 25-Dec-2016

 ----------------------------------------------------------------------
 # wB97XD def2tzvp, opt=(ts, noeigen, calcfc, maxcycles=70, maxstep=8),
  freq=noraman, scrf=(iefpcm, solvent=water)
 ----------------------------------------------------------------------

 ------------------------
 1_iteration/TS-905-1.out
 ------------------------
 Symbolic Z-matrix:
 Charge =  0 Multiplicity = 1

 SCF Done:  E(RwB97XD) =  -3360.32646268     A.U. after   15 cycles
 SCF Done:  E(RwB97XD) =  -3360.32762092     A.U. after   13 cycles
 SCF Done:  E(RwB97XD) =  -3360.32834986     A.U. after   13 cycles
 SCF Done:  E(RwB97XD) =  -3360.32849464     A.U. after   12 cycles
 SCF Done:  E(RwB97XD) =  -3360.32850677     A.U. after   10 cycles
 SCF Done:  E(RwB97XD) =  -3360.32850679     A.U. after   10 cycles
 SCF Done:  E(RwB97XD) =  -3360.32850913     A.U. after   10 cycles
 SCF Done:  E(RwB97XD) =  -3360.32850898     A.U. after   10 cycles
 SCF Done:  E(RwB97XD) =  -3360.32850919     A.U. after    9 cycles
 Optimization completed.
    -- Stationary point found.
 Normal termination of Gaussian 16 at Sun Feb 28 13:08:09 2021.

 ---------------------------------------------------------------------
 #N Geom=AllCheck Guess=TCheck SCRF=Check GenChk RwB97XD/def2TZVP Freq
 ---------------------------------------------------------------------

 Structure from the checkpoint file:  "/beegfs/scratch/user/q/tla25/Gau-55514.chk"
 ------------------------
 1_iteration/TS-905-1.out
 ------------------------
 Charge =  0 Multiplicity = 1

                         Standard orientation:
 ---------------------------------------------------------------------
 Center     Atomic      Atomic             Coordinates (Angstroms)
 Number     Number       Type             X           Y           Z
 ---------------------------------------------------------------------
      1          6           0        0.553965    0.574142   -0.200207
      2          6           0        1.190892    1.840307   -0.094228
      3          8           0        2.360820    2.050333    0.206493
      4          6           0       -0.798792    0.427720   -0.487478
      5          6           0       -3.144509   -0.097592    1.389888
      6          1           0       -3.672498    0.803045    1.083322
      7          1           0       -3.417638   -0.914301    0.723348
      8          1           0       -3.448218   -0.354242    2.406194
      9          7           0       -1.704712    0.129426    1.298286
     10          1           0       -1.418663    0.948187    1.822978
     11          1           0       -1.183211   -0.661169    1.660039
     12         17           0       -1.314172   -1.084571   -1.237919
     13          6           0       -1.637326    1.584227   -0.960444
     14          1           0       -1.552433    2.437764   -0.291856
     15          1           0       -1.316334    1.880082   -1.959345
     16          1           0       -2.681607    1.287742   -1.014398
     17         35           0        1.615839   -0.941887    0.237879
     18          1           0        0.538202    2.695167   -0.336542
 ---------------------------------------------------------------------

 SCF Done:  E(RwB97XD) =  -3360.32850919     A.U. after    1 cycles

 The electronic state is 1-A.
 Alpha  occ. eigenvalues -- -483.12688-101.70809 -62.67525 -56.46634 -56.46292
 Alpha  occ. eigenvalues --  -56.46280 -19.22186 -14.48027 -10.41846 -10.36107
 Alpha  occ. eigenvalues --  -10.31951 -10.31803 -10.30057  -9.59404  -8.81645
 Alpha  occ. eigenvalues --   -7.34048  -7.33200  -7.33134  -6.63778  -6.62679
 Alpha  occ. eigenvalues --   -6.62642  -2.74173  -2.73853  -2.73824  -2.72935
 Alpha  occ. eigenvalues --   -2.72935  -1.12645  -1.04029  -0.99274  -0.91436
 Alpha  occ. eigenvalues --   -0.87073  -0.80427  -0.78853  -0.71843  -0.62944
 Alpha  occ. eigenvalues --   -0.61833  -0.59682  -0.57084  -0.55694  -0.55108
 Alpha  occ. eigenvalues --   -0.51188  -0.50503  -0.48777  -0.48219  -0.48054
 Alpha  occ. eigenvalues --   -0.46254  -0.44877  -0.41418  -0.39636  -0.38743
 Alpha  occ. eigenvalues --   -0.36682  -0.33636  -0.29032
 Alpha virt. eigenvalues --    0.01597   0.05945   0.10048   0.11135   0.13451
 Alpha virt. eigenvalues --    0.13703   0.14734   0.16620   0.18483   0.18801
 Alpha virt. eigenvalues --    0.19166   0.19596   0.20072   0.22028   0.22511

 Mulliken charges:
               1
     1  C   -0.064975
     2  C    0.074191
     3  O   -0.471262
     4  C    0.118425
     5  C   -0.284003
     6  H    0.158361
     7  H    0.148109
     8  H    0.155631
     9  N   -0.377539
    10  H    0.282931
    11  H    0.282003
    12  Cl  -0.076464
    13  C   -0.420016
    14  H    0.159779
    15  H    0.177574
    16  H    0.167790
    17  Br  -0.126620
    18  H    0.096084
 Sum of Mulliken charges =  -0.00000

 Dipole moment (field-independent basis, Debye):
    X=            -10.8395    Y=              0.1570    Z=              2.6030  Tot=             11.1488
 Quadrupole moment (field-independent basis, Debye-Ang):
   XX=            -78.3382   YY=            -75.2189   ZZ=            -67.9068
   XY=            -12.5151   XZ=             -7.4758   YZ=             -2.9344

  Exact polarizability: 194.902  17.212 152.503  -2.609  -1.460 122.669
 Approx polarizability: 148.488  10.906 127.912   0.868   0.588 106.727

 ******    1 imaginary frequencies (negative Signs) ******

                      1                      2                      3
                      A                      A                      A
 Frequencies --   -344.0623                55.4501                70.8353
 Red. masses --      6.1018                 3.6795                 2.5604
 Frc consts  --      0.4256                 0.0067                 0.0076
 IR Inten    --    878.2123                 1.0954                 4.1350

                      4                      5                      6
                      A                      A                      A
 Frequencies --     96.7162               159.2892               166.4963
 Red. masses --      4.7183                 2.8991                 2.3434
 Frc consts  --      0.0260                 0.0433                 0.0383
 IR Inten    --      9.5034                 0.7003                 3.8619

                      7                      8                      9
                      A                      A                      A
 Frequencies --    193.5948               203.0817               255.8784
 Red. masses --      3.4659                 4.7805                 2.8225
 Frc consts  --      0.0765                 0.1162                 0.1089
 IR Inten    --     13.8578                 6.1876                 5.2848

                     10                     11                     12
                      A                      A                      A
 Frequencies --    266.4548               291.7934               349.5944
 Red. masses --      1.3505                 2.3295                 3.4172
 Frc consts  --      0.0565                 0.1169                 0.2461
 IR Inten    --      1.7391                 9.2954                 2.2309

                     13                     14                     15
                      A                      A                      A
 Frequencies --    356.0525               379.3371               483.8804
 Red. masses --      2.8586                 4.4604                 5.8312
 Frc consts  --      0.2135                 0.3782                 0.8044
 IR Inten    --     10.6001                 4.8258                59.4511

                     16                     17                     18
                      A                      A                      A
 Frequencies --    504.9746               619.8670               640.4980
 Red. masses --      5.0713                 3.2915                 1.5992
 Frc consts  --      0.7619                 0.7451                 0.3865
 IR Inten    --    155.1475                70.6743                15.0391

                     19                     20                     21
                      A                      A                      A
 Frequencies --    760.5313              1003.5985              1011.9904
 Red. masses --      3.7777                 1.1963                 1.6654
 Frc consts  --      1.2874                 0.7099                 1.0049
 IR Inten    --    156.9601                18.8853                 0.7416

                     22                     23                     24
                      A                      A                      A
 Frequencies --   1019.9605              1040.6418              1062.0556
 Red. masses --      1.2634                 1.7307                 1.7805
 Frc consts  --      0.7744                 1.1043                 1.1833
 IR Inten    --    255.0693                 3.3519                97.7171

                     25                     26                     27
                      A                      A                      A
 Frequencies --   1074.6351              1113.1842              1215.9248
 Red. masses --      3.2564                 2.0857                 1.4046
 Frc consts  --      2.2157                 1.5228                 1.2236
 IR Inten    --     58.5948                48.1040                26.1252

                     28                     29                     30
                      A                      A                      A
 Frequencies --   1246.0064              1345.5298              1402.8820
 Red. masses --      4.7385                 1.3173                 2.2755
 Frc consts  --      4.3344                 1.4052                 2.6386
 IR Inten    --    390.2818                 2.2797               706.9846

                     31                     32                     33
                      A                      A                      A
 Frequencies --   1419.4774              1457.0500              1476.1036
 Red. masses --      1.2473                 1.1800                 1.2720
 Frc consts  --      1.4807                 1.4760                 1.6330
 IR Inten    --     16.9814                23.4196               129.6834

                     34                     35                     36
                      A                      A                      A
 Frequencies --   1489.4528              1493.9955              1503.8255
 Red. masses --      1.1154                 1.0540                 1.0771
 Frc consts  --      1.4580                 1.3861                 1.4352
 IR Inten    --     99.2347                22.2806                27.6748

                     37                     38                     39
                      A                      A                      A
 Frequencies --   1513.9442              1641.8851              1684.5332
 Red. masses --      1.3282                 1.0899                 8.3798
 Frc consts  --      1.7936                 1.7312                14.0101
 IR Inten    --    176.9300                75.5059               971.5300

                     40                     41                     42
                      A                      A                      A
 Frequencies --   2984.0138              3063.8077              3083.9859
 Red. masses --      1.0815                 1.0359                 1.0372
 Frc consts  --      5.6739                 5.7289                 5.8123
 IR Inten    --     94.1186                51.1625                 6.3343

                     43                     44                     45
                      A                      A                      A
 Frequencies --   3140.1393              3163.4802              3167.2763
 Red. masses --      1.1014                 1.1012                 1.1058
 Frc consts  --      6.3989                 6.4931                 6.5356
 IR Inten    --     13.8217                 4.5725                15.9713

                     46                     47                     48
                      A                      A                      A
 Frequencies --   3181.1669              3521.1795              3603.0042
 Red. masses --      1.1038                 1.0508                 1.0961
 Frc consts  --      6.5811                 7.6761                 8.3836
 IR Inten    --      6.5228                21.2218                40.8520

 - Thermochemistry -
 -------------------
 Temperature   298.150 Kelvin.  Pressure   1.00000 Atm.
 Atom     1 has atomic number  6 and mass  12.00000

 Molecular mass:   212.95560 amu.
 Principal axes and moments of inertia in atomic units:
                           1         2         3
     Eigenvalues --  1477.387602720.991303214.37047
           X            0.99921   0.00430  -0.03940
           Y           -0.00593   0.99913  -0.04128
           Z            0.03919   0.04148   0.99837
 This molecule is an asymmetric top.
 Rotational symmetry number  1.
 Warning -- assumption of classical behavior for rotation
           may cause significant error
 Rotational temperatures (Kelvin)      0.05863     0.03183     0.02695
 Rotational constants (GHZ):           1.22158     0.66327     0.56146
    1 imaginary frequencies ignored.
 Zero-point vibrational energy     364735.8 (Joules/Mol)
                                   87.17394 (Kcal/Mol)
 Warning -- explicit consideration of  16 degrees of freedom as
           vibrations may cause significant error
 Vibrational temperatures:     79.78   101.92   139.15   229.18   239.55
          (Kelvin)            278.54   292.19   368.15   383.37   419.83
                              502.99   512.28   545.78   696.20   726.55
                              891.85   921.53  1094.23  1443.95  1456.03
                             1467.50  1497.25  1528.06  1546.16  1601.62
                             1749.44  1792.73  1935.92  2018.43  2042.31
                             2096.37  2123.78  2142.99  2149.53  2163.67
                             2178.23  2362.31  2423.67  4293.33  4408.14
                             4437.17  4517.96  4551.54  4557.00  4576.99
                             5066.19  5183.92

 Zero-point correction=                           0.138921 (Hartree/Particle)
 Thermal correction to Energy=                    0.150040
 Thermal correction to Enthalpy=                  0.150984
 Thermal correction to Gibbs Free Energy=         0.100727
 Sum of electronic and zero-point Energies=          -3360.189589
 Sum of electronic and thermal Energies=             -3360.178470
 Sum of electronic and thermal Enthalpies=           -3360.177525
 Sum of electronic and thermal Free Energies=        -3360.227782

                     E (Thermal)             CV                S
                      KCal/Mol        Cal/Mol-Kelvin    Cal/Mol-Kelvin
 Total                   94.151             37.895            105.775
 Electronic               0.000              0.000              0.000
 Translational            0.889              2.981             41.971
 Rotational               0.889              2.981             30.936
 Vibrational             92.374             31.933             32.868
 Vibration     1          0.596              1.975              4.613
 Vibration     2          0.598              1.968              4.130
 Vibration     3          0.603              1.952              3.519
 Vibration     4          0.621              1.892              2.558
 Vibration     5          0.624              1.884              2.475
 Vibration     6          0.635              1.849              2.193
 Vibration     7          0.639              1.836              2.105
 Vibration     8          0.666              1.753              1.690
 Vibration     9          0.672              1.735              1.619
 Vibration    10          0.687              1.689              1.464
 Vibration    11          0.727              1.576              1.168
 Vibration    12          0.732              1.563              1.139
 Vibration    13          0.749              1.514              1.042
 Vibration    14          0.840              1.286              0.700
 Vibration    15          0.860              1.239              0.646
 Vibration    16          0.980              0.990              0.417

 Optimization completed.
    -- Stationary point found.
 Normal termination of Gaussian 16 at Sun Feb 28 13:19:18 2021.
