 Gaussian 16, Revision A.03,
 Gaussian 16:  ES64L-G16RevA.03 25-Dec-2016

 ----------------------------------------------------------------------
 # wB97XD def2tzvp, opt=(ts, noeigen, calcfc, maxcycles=70, maxstep=5),
  freq=noraman, scrf=(iefpcm, solvent=water)
 ----------------------------------------------------------------------

 -----------------------
 2_iteration/TS-98-2.out
 -----------------------
 Symbolic Z-matrix:
 Charge =  0 Multiplicity = 1

 SCF Done:  E(RwB97XD) =  -636.780265305     A.U. after   15 cycles
 SCF Done:  E(RwB97XD) =  -636.780265319     A.U. after    8 cycles
 Optimization completed.
    -- Stationary point found.
 Normal termination of Gaussian 16 at Sun Jan 31 20:09:50 2021.

 ---------------------------------------------------------------------
 #N Geom=AllCheck Guess=TCheck SCRF=Check GenChk RwB97XD/def2TZVP Freq
 ---------------------------------------------------------------------

 Structure from the checkpoint file:  "/beegfs/scratch/user/q/tla25/Gau-27936.chk"
 -----------------------
 2_iteration/TS-98-2.out
 -----------------------
 Charge =  0 Multiplicity = 1

                         Standard orientation:
 ---------------------------------------------------------------------
 Center     Atomic      Atomic             Coordinates (Angstroms)
 Number     Number       Type             X           Y           Z
 ---------------------------------------------------------------------
      1          6           0       -1.291160   -0.659590   -0.321907
      2          6           0       -2.678730   -0.820767   -0.067503
      3          8           0       -3.363755   -1.701924   -0.638588
      4          6           0       -0.419198    0.311626    0.279867
      5          6           0        0.204612    3.053408   -0.453842
      6          1           0        0.048096    3.811211   -1.221129
      7          1           0       -0.124000    3.444387    0.505567
      8          1           0        1.263291    2.810441   -0.397072
      9          7           0       -0.554335    1.834256   -0.760920
     10          1           0       -1.552244    2.006538   -0.706457
     11          1           0       -0.381989    1.521077   -1.709463
     12          6           0        1.056840   -0.045695    0.182953
     13          6           0        1.868228    0.225163   -0.913520
     14          6           0        3.196940   -0.173922   -0.940955
     15          6           0        3.742783   -0.867199    0.126597
     16          6           0        2.942900   -1.157711    1.221799
     17          6           0        1.619717   -0.748045    1.248525
     18          1           0        1.482659    0.740916   -1.781915
     19          1           0        3.802701    0.056965   -1.808048
     20          1           0        4.778482   -1.180960    0.104664
     21          1           0        3.348643   -1.705515    2.063007
     22          1           0        1.014351   -0.994334    2.110868
     23          6           0       -0.711258    0.949100    1.634149
     24          1           0       -0.885830    0.176867    2.381350
     25          1           0        0.141400    1.543123    1.959629
     26          1           0       -1.583962    1.593735    1.621154
     27          6           0       -0.713785   -1.542972   -1.409949
     28          1           0       -0.340107   -0.976996   -2.270930
     29          1           0        0.119427   -2.159456   -1.060089
     30          1           0       -1.494528   -2.206881   -1.773006
     31          6           0       -3.456706    0.057375    0.907844
     32          1           0       -3.135352   -0.089025    1.938996
     33          1           0       -3.372253    1.121351    0.681256
     34          1           0       -4.505490   -0.222471    0.832407
 ---------------------------------------------------------------------

 SCF Done:  E(RwB97XD) =  -636.780265319     A.U. after    1 cycles

 The electronic state is 1-A.
 Alpha  occ. eigenvalues --  -19.17929 -14.49819 -10.35839 -10.33215 -10.32227
 Alpha  occ. eigenvalues --  -10.30669 -10.29451 -10.29235 -10.29218 -10.29156
 Alpha  occ. eigenvalues --  -10.29008 -10.28178 -10.26504 -10.25404 -10.24536
 Alpha  occ. eigenvalues --   -1.08366  -1.05300  -0.97413  -0.91685  -0.85531
 Alpha  occ. eigenvalues --   -0.84915  -0.82795  -0.81290  -0.79810  -0.74113
 Alpha  occ. eigenvalues --   -0.71614  -0.70768  -0.66713  -0.64445  -0.60891
 Alpha  occ. eigenvalues --   -0.59494  -0.56879  -0.56218  -0.54860  -0.54690
 Alpha  occ. eigenvalues --   -0.53024  -0.52463  -0.51203  -0.50937  -0.49308
 Alpha  occ. eigenvalues --   -0.49030  -0.48704  -0.47905  -0.47710  -0.46124
 Alpha  occ. eigenvalues --   -0.45486  -0.44556  -0.43628  -0.41984  -0.41797
 Alpha  occ. eigenvalues --   -0.40973  -0.40723  -0.33987  -0.33582  -0.30154
 Alpha  occ. eigenvalues --   -0.25319
 Alpha virt. eigenvalues --    0.04313   0.04969   0.07499   0.09228   0.12087
 Alpha virt. eigenvalues --    0.12845   0.13409   0.14069   0.14438   0.16303
 Alpha virt. eigenvalues --    0.16732   0.17538   0.17928   0.18268   0.18560

 Mulliken charges:
               1
     1  C   -0.234583
     2  C    0.175558
     3  O   -0.575507
     4  C    0.174789
     5  C   -0.292214
     6  H    0.161948
     7  H    0.165758
     8  H    0.165982
     9  N   -0.280193
    10  H    0.281114
    11  H    0.281898
    12  C    0.298438
    13  C   -0.319721
    14  C   -0.146366
    15  C   -0.152232
    16  C   -0.138462
    17  C   -0.292972
    18  H    0.153581
    19  H    0.143384
    20  H    0.143929
    21  H    0.142795
    22  H    0.144817
    23  C   -0.455935
    24  H    0.166895
    25  H    0.174323
    26  H    0.158456
    27  C   -0.386915
    28  H    0.103898
    29  H    0.116750
    30  H    0.128110
    31  C   -0.384090
    32  H    0.137866
    33  H    0.120566
    34  H    0.118335
 Sum of Mulliken charges =  -0.00000

 Dipole moment (field-independent basis, Debye):
    X=              6.8667    Y=             10.5619    Z=              0.8556  Tot=             12.6269
 Quadrupole moment (field-independent basis, Debye-Ang):
   XX=           -111.2529   YY=            -89.3192   ZZ=            -85.3952
   XY=            -21.5823   XZ=             -7.7370   YZ=            -10.7998

  Exact polarizability: 283.112  13.998 214.854  -7.321  -9.861 206.379
 Approx polarizability: 210.871   7.267 175.464  -3.887 -10.872 177.625

 ******    1 imaginary frequencies (negative Signs) ******

                      1                      2                      3
                      A                      A                      A
 Frequencies --   -345.3872                32.6952                50.6413
 Red. masses --      5.9062                 3.6173                 3.0426
 Frc consts  --      0.4151                 0.0023                 0.0046
 IR Inten    --    945.4293                 3.5000                 1.6482

                      4                      5                      6
                      A                      A                      A
 Frequencies --     72.2567                91.6778               124.3445
 Red. masses --      5.3782                 4.0636                 1.9258
 Frc consts  --      0.0165                 0.0201                 0.0175
 IR Inten    --      6.6054                 5.0335                 1.5104

                      7                      8                      9
                      A                      A                      A
 Frequencies --    144.9026               161.3747               175.9493
 Red. masses --      2.2274                 1.1084                 1.5994
 Frc consts  --      0.0276                 0.0170                 0.0292
 IR Inten    --      2.6091                 0.8383                 2.0953

                     10                     11                     12
                      A                      A                      A
 Frequencies --    235.5967               252.5887               258.4366
 Red. masses --      1.8758                 1.4230                 2.8886
 Frc consts  --      0.0613                 0.0535                 0.1137
 IR Inten    --      1.7893                 6.9935                 3.3863

                     13                     14                     15
                      A                      A                      A
 Frequencies --    271.3600               297.9308               326.3546
 Red. masses --      2.8328                 2.6714                 1.8233
 Frc consts  --      0.1229                 0.1397                 0.1144
 IR Inten    --     10.0714                17.3895                 8.2747

                     16                     17                     18
                      A                      A                      A
 Frequencies --    348.7023               363.3715               381.9318
 Red. masses --      2.9203                 1.5006                 3.1606
 Frc consts  --      0.2092                 0.1167                 0.2716
 IR Inten    --      1.4109                16.5990                17.0925

                     19                     20                     21
                      A                      A                      A
 Frequencies --    402.9382               421.0580               454.2684
 Red. masses --      3.5100                 2.8527                 2.9496
 Frc consts  --      0.3358                 0.2980                 0.3586
 IR Inten    --     16.0045                 1.9975                 4.6969

                     22                     23                     24
                      A                      A                      A
 Frequencies --    514.6125               540.2360               592.4019
 Red. masses --      3.6473                 3.2984                 3.1537
 Frc consts  --      0.5691                 0.5672                 0.6521
 IR Inten    --     66.8200               120.8858                63.5024

                     25                     26                     27
                      A                      A                      A
 Frequencies --    619.5553               638.5080               641.6257
 Red. masses --      3.4275                 4.8306                 3.3897
 Frc consts  --      0.7752                 1.1603                 0.8222
 IR Inten    --     18.6956                 7.0588                43.3005

                     28                     29                     30
                      A                      A                      A
 Frequencies --    691.5352               706.5016               725.4175
 Red. masses --      3.4442                 1.5315                 1.5046
 Frc consts  --      0.9704                 0.4504                 0.4665
 IR Inten    --     47.3497                41.7814                96.8063

                     31                     32                     33
                      A                      A                      A
 Frequencies --    796.7270               832.0052               872.3615
 Red. masses --      2.4357                 2.5545                 1.2533
 Frc consts  --      0.9109                 1.0418                 0.5620
 IR Inten    --     16.9033                10.6604                 0.3893

                     34                     35                     36
                      A                      A                      A
 Frequencies --    937.3025               951.4598               971.5803
 Red. masses --      1.7669                 1.4452                 1.7736
 Frc consts  --      0.9146                 0.7708                 0.9864
 IR Inten    --     50.1137                 2.2690               270.3834

                     37                     38                     39
                      A                      A                      A
 Frequencies --   1009.5965              1021.5775              1026.7295
 Red. masses --      1.3680                 1.3893                 3.5460
 Frc consts  --      0.8216                 0.8542                 2.2024
 IR Inten    --      0.5183                11.7196                 2.2917

                     40                     41                     42
                      A                      A                      A
 Frequencies --   1029.9683              1035.0673              1041.1957
 Red. masses --      1.3163                 1.8773                 1.9363
 Frc consts  --      0.8227                 1.1850                 1.2367
 IR Inten    --      1.6275                22.5213                55.7343

                     43                     44                     45
                      A                      A                      A
 Frequencies --   1051.5542              1060.2600              1064.8723
 Red. masses --      1.7082                 1.6749                 1.8146
 Frc consts  --      1.1129                 1.1093                 1.2123
 IR Inten    --     37.4855                41.5291                13.8053

                     46                     47                     48
                      A                      A                      A
 Frequencies --   1084.3363              1098.8442              1122.1260
 Red. masses --      1.6292                 1.8023                 1.8212
 Frc consts  --      1.1286                 1.2822                 1.3511
 IR Inten    --     37.2995                 1.4919               105.5873

                     49                     50                     51
                      A                      A                      A
 Frequencies --   1135.9405              1146.6436              1187.8715
 Red. masses --      2.1309                 2.0713                 1.1342
 Frc consts  --      1.6200                 1.6045                 0.9430
 IR Inten    --     23.7207                51.4431                 0.3861

                     52                     53                     54
                      A                      A                      A
 Frequencies --   1233.3278              1254.0028              1273.3739
 Red. masses --      1.1648                 2.0286                 1.8782
 Frc consts  --      1.0439                 1.8795                 1.7944
 IR Inten    --      0.6459                68.2779                13.2811

                     55                     56                     57
                      A                      A                      A
 Frequencies --   1321.6265              1342.0072              1371.9592
 Red. masses --      4.9313                 1.3138                 2.4592
 Frc consts  --      5.0750                 1.3941                 2.7273
 IR Inten    --     18.2157                 1.0966               156.7819

                     58                     59                     60
                      A                      A                      A
 Frequencies --   1380.1590              1383.1063              1389.0866
 Red. masses --      1.3871                 1.6763                 1.3793
 Frc consts  --      1.5567                 1.8893                 1.5681
 IR Inten    --      1.8499               322.8456                 7.2624

                     61                     62                     63
                      A                      A                      A
 Frequencies --   1422.8827              1428.0418              1462.6132
 Red. masses --      1.3966                 2.5895                 1.1208
 Frc consts  --      1.6660                 3.1114                 1.4127
 IR Inten    --    149.5433               403.5822                24.5875

                     64                     65                     66
                      A                      A                      A
 Frequencies --   1469.0591              1485.4177              1489.6737
 Red. masses --      1.1469                 1.0750                 1.7725
 Frc consts  --      1.4583                 1.3976                 2.3174
 IR Inten    --     24.1275                26.5039                39.5969

                     67                     68                     69
                      A                      A                      A
 Frequencies --   1492.8671              1497.0102              1500.9131
 Red. masses --      1.2746                 1.0460                 1.0487
 Frc consts  --      1.6736                 1.3811                 1.3919
 IR Inten    --     73.8645                16.1695                22.1459

                     70                     71                     72
                      A                      A                      A
 Frequencies --   1503.8603              1514.1461              1521.7801
 Red. masses --      1.0704                 1.0868                 1.0972
 Frc consts  --      1.4262                 1.4680                 1.4971
 IR Inten    --     27.4998                35.7013                95.4143

                     73                     74                     75
                      A                      A                      A
 Frequencies --   1551.1614              1568.7071              1638.6038
 Red. masses --      2.1813                 4.1120                 1.1678
 Frc consts  --      3.0923                 5.9620                 1.8473
 IR Inten    --     13.4352               935.1617                65.5251

                     76                     77                     78
                      A                      A                      A
 Frequencies --   1654.8539              1678.4137              3014.6369
 Red. masses --      4.1548                 5.5662                 1.0466
 Frc consts  --      6.7038                 9.2386                 5.6039
 IR Inten    --      8.4164                 3.1068               102.1137

                     79                     80                     81
                      A                      A                      A
 Frequencies --   3061.1787              3063.4203              3079.8724
 Red. masses --      1.0954                 1.0378                 1.0348
 Frc consts  --      6.0481                 5.7379                 5.7831
 IR Inten    --     71.5042                15.8393                36.7398

                     82                     83                     84
                      A                      A                      A
 Frequencies --   3086.9425              3136.9230              3152.7049
 Red. masses --      1.0390                 1.0998                 1.0939
 Frc consts  --      5.8335                 6.3761                 6.4064
 IR Inten    --     19.6146                30.9171                 7.8166

                     85                     86                     87
                      A                      A                      A
 Frequencies --   3155.2445              3157.6422              3162.6486
 Red. masses --      1.1030                 1.1019                 1.1035
 Frc consts  --      6.4701                 6.4731                 6.5031
 IR Inten    --     60.6263                 8.1928                10.6669

                     88                     89                     90
                      A                      A                      A
 Frequencies --   3183.8965              3185.9407              3196.8952
 Red. masses --      1.1043                 1.1017                 1.0858
 Frc consts  --      6.5953                 6.5884                 6.5380
 IR Inten    --     20.6280                 8.7597                 1.2499

                     91                     92                     93
                      A                      A                      A
 Frequencies --   3204.6150              3215.7202              3222.6830
 Red. masses --      1.0889                 1.0922                 1.0942
 Frc consts  --      6.5888                 6.6545                 6.6954
 IR Inten    --      4.2527                28.9609                39.1069

                     94                     95                     96
                      A                      A                      A
 Frequencies --   3228.6186              3526.4593              3594.3053
 Red. masses --      1.0965                 1.0526                 1.0947
 Frc consts  --      6.7343                 7.7124                 8.3322
 IR Inten    --      6.6751                16.0765                40.7074

 - Thermochemistry -
 -------------------
 Temperature   298.150 Kelvin.  Pressure   1.00000 Atm.
 Atom     1 has atomic number  6 and mass  12.00000

 Molecular mass:   205.14666 amu.
 Principal axes and moments of inertia in atomic units:
                           1         2         3
     Eigenvalues --  1947.066104376.196564965.24731
           X            0.99972  -0.01906  -0.01426
           Y            0.01905   0.99982  -0.00061
           Z            0.01427   0.00034   0.99990
 This molecule is an asymmetric top.
 Rotational symmetry number  1.
 Warning -- assumption of classical behavior for rotation
           may cause significant error
 Rotational temperatures (Kelvin)      0.04448     0.01979     0.01744
 Rotational constants (GHZ):           0.92690     0.41240     0.36347
    1 imaginary frequencies ignored.
 Zero-point vibrational energy     780418.6 (Joules/Mol)
                                  186.52451 (Kcal/Mol)
 Warning -- explicit consideration of  24 degrees of freedom as
           vibrations may cause significant error
 Vibrational temperatures:     47.04    72.86   103.96   131.90   178.90
          (Kelvin)            208.48   232.18   253.15   338.97   363.42
                              371.83   390.43   428.66   469.55   501.70
                              522.81   549.51   579.74   605.81   653.59
                              740.41   777.28   852.33   891.40   918.67
                              923.16   994.96  1016.50  1043.71  1146.31
                             1197.07  1255.13  1348.57  1368.94  1397.89
                             1452.58  1469.82  1477.23  1481.89  1489.23
                             1498.05  1512.95  1525.48  1532.11  1560.12
                             1580.99  1614.49  1634.37  1649.76  1709.08
                             1774.48  1804.23  1832.10  1901.53  1930.85
                             1973.94  1985.74  1989.98  1998.59  2047.21
                             2054.63  2104.37  2113.65  2137.18  2143.31
                             2147.90  2153.86  2159.48  2163.72  2178.52
                             2189.50  2231.78  2257.02  2357.59  2380.97
                             2414.86  4337.39  4404.35  4407.58  4431.25
                             4441.42  4513.33  4536.04  4539.69  4543.14
                             4550.35  4580.92  4583.86  4599.62  4610.73
                             4626.70  4636.72  4645.26  5073.79  5171.40

 Zero-point correction=                           0.297246 (Hartree/Particle)
 Thermal correction to Energy=                    0.312778
 Thermal correction to Enthalpy=                  0.313723
 Thermal correction to Gibbs Free Energy=         0.254637
 Sum of electronic and zero-point Energies=           -636.483020
 Sum of electronic and thermal Energies=              -636.467487
 Sum of electronic and thermal Enthalpies=            -636.466543
 Sum of electronic and thermal Free Energies=         -636.525628

                     E (Thermal)             CV                S
                      KCal/Mol        Cal/Mol-Kelvin    Cal/Mol-Kelvin
 Total                  196.271             59.514            124.356
 Electronic               0.000              0.000              0.000
 Translational            0.889              2.981             41.860
 Rotational               0.889              2.981             32.115
 Vibrational            194.494             53.553             50.382
 Vibration     1          0.594              1.983              5.659
 Vibration     2          0.595              1.977              4.792
 Vibration     3          0.598              1.967              4.091
 Vibration     4          0.602              1.955              3.624
 Vibration     5          0.610              1.929              3.032
 Vibration     6          0.616              1.908              2.738
 Vibration     7          0.622              1.890              2.534
 Vibration     8          0.628              1.872              2.371
 Vibration     9          0.655              1.786              1.836
 Vibration    10          0.664              1.758              1.712
 Vibration    11          0.667              1.748              1.672
 Vibration    12          0.675              1.726              1.588
 Vibration    13          0.691              1.678              1.428
 Vibration    14          0.710              1.623              1.278
 Vibration    15          0.726              1.578              1.172
 Vibration    16          0.737              1.548              1.108
 Vibration    17          0.751              1.509              1.032
 Vibration    18          0.768              1.464              0.952
 Vibration    19          0.784              1.424              0.888
 Vibration    20          0.813              1.351              0.783
 Vibration    21          0.870              1.218              0.623
 Vibration    22          0.895              1.161              0.565
 Vibration    23          0.950              1.048              0.463
 Vibration    24          0.980              0.991              0.417

 Optimization completed.
    -- Stationary point found.
 Normal termination of Gaussian 16 at Sun Jan 31 21:28:19 2021.
