 Gaussian 16, Revision A.03,
 Gaussian 16:  ES64L-G16RevA.03 25-Dec-2016

 ----------------------------------------------------------------------
 # wB97XD def2tzvp, opt=(ts, noeigen, calcfc, maxcycles=70, maxstep=5),
  freq=noraman, scrf=(iefpcm, solvent=water)
 ----------------------------------------------------------------------

 -----------------------
 2_iteration/TS-95-2.out
 -----------------------
 Symbolic Z-matrix:
 Charge =  0 Multiplicity = 1

 SCF Done:  E(RwB97XD) =  -844.581842025     A.U. after   14 cycles
 SCF Done:  E(RwB97XD) =  -844.581902781     A.U. after   12 cycles
 SCF Done:  E(RwB97XD) =  -844.581904061     A.U. after   10 cycles
 SCF Done:  E(RwB97XD) =  -844.581904476     A.U. after    9 cycles
 SCF Done:  E(RwB97XD) =  -844.581904720     A.U. after    7 cycles
 SCF Done:  E(RwB97XD) =  -844.581904691     A.U. after    7 cycles
 Optimization completed on the basis of negligible forces.
    -- Stationary point found.
 Normal termination of Gaussian 16 at Sun Jan 31 15:13:26 2021.

 ---------------------------------------------------------------------
 #N Geom=AllCheck Guess=TCheck SCRF=Check GenChk RwB97XD/def2TZVP Freq
 ---------------------------------------------------------------------

 Structure from the checkpoint file:  "/beegfs/scratch/user/q/tla25/Gau-64930.chk"
 -----------------------
 2_iteration/TS-95-2.out
 -----------------------
 Charge =  0 Multiplicity = 1

                         Standard orientation:
 ---------------------------------------------------------------------
 Center     Atomic      Atomic             Coordinates (Angstroms)
 Number     Number       Type             X           Y           Z
 ---------------------------------------------------------------------
      1          6           0       -0.617896   -0.590069   -0.633120
      2          6           0        0.771321   -0.684242   -0.881265
      3          8           0        1.264718   -1.562278   -1.614980
      4          6           0       -1.388722    0.098551    0.380552
      5          6           0       -0.227973   -1.289603    2.390740
      6          1           0        0.446576   -1.579156    1.586691
      7          1           0        0.185754   -0.449264    2.940082
      8          1           0       -0.370839   -2.127997    3.068700
      9          7           0       -1.510929   -0.906388    1.788358
     10          1           0       -1.993531   -1.739393    1.468224
     11          1           0       -2.117153   -0.459531    2.471825
     12          6           0       -2.857190    0.201778   -0.017700
     13          6           0       -3.510848    1.428422   -0.086951
     14          6           0       -4.838662    1.510445   -0.485430
     15          6           0       -5.545563    0.365269   -0.810819
     16          6           0       -4.908905   -0.865999   -0.741962
     17          6           0       -3.582038   -0.943292   -0.355007
     18          1           0       -2.990409    2.343380    0.157584
     19          1           0       -5.318769    2.479470   -0.537467
     20          1           0       -6.582119    0.428860   -1.115930
     21          1           0       -5.445518   -1.771900   -0.993688
     22          1           0       -3.109804   -1.918455   -0.334970
     23          6           0       -0.854006    1.379708    1.003264
     24          1           0        0.102388    1.218891    1.493057
     25          1           0       -0.722436    2.142528    0.235670
     26          1           0       -1.541458    1.773137    1.752376
     27          1           0       -1.172807   -1.306678   -1.224045
     28          7           0        1.631651    0.275512   -0.315892
     29          6           0        3.020636    0.263570   -0.278702
     30          6           0        3.782923   -0.907147   -0.339193
     31          6           0        5.164038   -0.843309   -0.237525
     32          6           0        5.819531    0.368249   -0.067027
     33          6           0        5.065121    1.531411    0.002265
     34          6           0        3.685970    1.482579   -0.105415
     35          1           0        1.219482    1.166262   -0.111296
     36          1           0        3.286597   -1.855383   -0.471954
     37          1           0        5.735207   -1.762718   -0.287682
     38          1           0        6.898241    0.405488    0.011856
     39          1           0        5.552161    2.489515    0.137111
     40          1           0        3.109230    2.399375   -0.053798
 ---------------------------------------------------------------------

 SCF Done:  E(RwB97XD) =  -844.581904691     A.U. after    1 cycles

 The electronic state is 1-A.
 Alpha  occ. eigenvalues --  -19.18138 -14.51728 -14.44460 -10.36390 -10.36340
 Alpha  occ. eigenvalues --  -10.33051 -10.32543 -10.30881 -10.29577 -10.29417
 Alpha  occ. eigenvalues --  -10.29397 -10.29319 -10.29188 -10.28776 -10.28649
 Alpha  occ. eigenvalues --  -10.28517 -10.28223 -10.27740 -10.27702 -10.23474
 Alpha  occ. eigenvalues --   -1.10832  -1.07271  -1.02150  -0.97492  -0.94702
 Alpha  occ. eigenvalues --   -0.91342  -0.85761  -0.84967  -0.84599  -0.83417
 Alpha  occ. eigenvalues --   -0.80565  -0.80074  -0.73728  -0.71244  -0.70714
 Alpha  occ. eigenvalues --   -0.69870  -0.67114  -0.65365  -0.64178  -0.62600
 Alpha  occ. eigenvalues --   -0.61783  -0.58973  -0.57586  -0.57348  -0.56476
 Alpha  occ. eigenvalues --   -0.54624  -0.53629  -0.53112  -0.52114  -0.51688
 Alpha  occ. eigenvalues --   -0.51228  -0.50581  -0.50184  -0.49602  -0.49307
 Alpha  occ. eigenvalues --   -0.48406  -0.47024  -0.46429  -0.45587  -0.44890
 Alpha  occ. eigenvalues --   -0.44502  -0.43880  -0.42906  -0.42218  -0.41953
 Alpha  occ. eigenvalues --   -0.38297  -0.34248  -0.34137  -0.33542  -0.32014
 Alpha  occ. eigenvalues --   -0.29155  -0.25354
 Alpha virt. eigenvalues --    0.03738   0.04845   0.05794   0.06276   0.09555
 Alpha virt. eigenvalues --    0.11297   0.12091   0.12992   0.13495   0.13966
 Alpha virt. eigenvalues --    0.14568   0.15666   0.16484   0.16533   0.17458

 Mulliken charges:
               1
     1  C   -0.505289
     2  C    0.266281
     3  O   -0.572651
     4  C    0.243559
     5  C   -0.326564
     6  H    0.167344
     7  H    0.169204
     8  H    0.171287
     9  N   -0.170257
    10  H    0.283851
    11  H    0.298335
    12  C    0.227287
    13  C   -0.259386
    14  C   -0.138379
    15  C   -0.150812
    16  C   -0.164221
    17  C   -0.299263
    18  H    0.161790
    19  H    0.144702
    20  H    0.145716
    21  H    0.145072
    22  H    0.166628
    23  C   -0.562915
    24  H    0.168948
    25  H    0.178733
    26  H    0.172558
    27  H    0.098456
    28  N   -0.270687
    29  C    0.299873
    30  C   -0.310930
    31  C   -0.089124
    32  C   -0.211270
    33  C   -0.097414
    34  C   -0.320320
    35  H    0.249861
    36  H    0.137504
    37  H    0.138261
    38  H    0.137203
    39  H    0.139475
    40  H    0.137551
 Sum of Mulliken charges =  -0.00000

 Dipole moment (field-independent basis, Debye):
    X=             -8.6084    Y=              2.7179    Z=             10.9694  Tot=             14.2063
 Quadrupole moment (field-independent basis, Debye-Ang):
   XX=           -111.2554   YY=           -109.6477   ZZ=           -120.5378
   XY=              8.6358   XZ=              0.2550   YZ=            -10.8755

  Exact polarizability: 418.554  -5.895 298.098   6.623  14.407 219.815
 Approx polarizability: 295.936  -5.327 256.885   6.202  13.297 188.406

 ******    1 imaginary frequencies (negative Signs) ******

                      1                      2                      3
                      A                      A                      A
 Frequencies --   -228.7998                 9.8045                18.7264
 Red. masses --      5.6741                 3.7667                 4.7586
 Frc consts  --      0.1750                 0.0002                 0.0010
 IR Inten    --    685.8610                 1.6820                 1.6394

                      4                      5                      6
                      A                      A                      A
 Frequencies --     37.0343                58.8962                72.2355
 Red. masses --      5.4798                 3.4114                 2.6922
 Frc consts  --      0.0044                 0.0070                 0.0083
 IR Inten    --      1.4124                 2.8440                 2.3218

                      7                      8                      9
                      A                      A                      A
 Frequencies --     87.1169               119.2111               123.9773
 Red. masses --      3.7821                 3.2943                 4.6512
 Frc consts  --      0.0169                 0.0276                 0.0421
 IR Inten    --      2.4404                32.0918                 3.6767

                     10                     11                     12
                      A                      A                      A
 Frequencies --    168.6552               178.5695               203.8701
 Red. masses --      4.0954                 4.1689                 1.2744
 Frc consts  --      0.0686                 0.0783                 0.0312
 IR Inten    --      8.4461                 5.9955                 4.2326

                     13                     14                     15
                      A                      A                      A
 Frequencies --    241.1438               267.3060               314.8052
 Red. masses --      4.3757                 4.0688                 3.2606
 Frc consts  --      0.1499                 0.1713                 0.1904
 IR Inten    --      0.6532                 9.2872                13.6364

                     16                     17                     18
                      A                      A                      A
 Frequencies --    329.6046               349.7445               353.0300
 Red. masses --      3.3266                 2.8447                 4.4922
 Frc consts  --      0.2129                 0.2050                 0.3299
 IR Inten    --     34.4559                 7.8073                19.8458

                     19                     20                     21
                      A                      A                      A
 Frequencies --    373.3483               397.1214               423.0604
 Red. masses --      4.3799                 1.1447                 2.8182
 Frc consts  --      0.3597                 0.1064                 0.2972
 IR Inten    --      1.9408                27.8219                 1.2140

                     22                     23                     24
                      A                      A                      A
 Frequencies --    423.8570               451.4769               503.6340
 Red. masses --      2.9612                 4.0502                 3.3336
 Frc consts  --      0.3134                 0.4864                 0.4982
 IR Inten    --      0.8243                21.0611                 1.4486

                     25                     26                     27
                      A                      A                      A
 Frequencies --    519.6778               528.6391               546.5118
 Red. masses --      1.9746                 2.2339                 2.2016
 Frc consts  --      0.3142                 0.3678                 0.3874
 IR Inten    --    116.8491                18.8859                 2.0711

                     28                     29                     30
                      A                      A                      A
 Frequencies --    592.9559               634.2907               638.8951
 Red. masses --      2.5097                 5.6793                 5.9165
 Frc consts  --      0.5199                 1.3462                 1.4229
 IR Inten    --    131.5261                 3.4339                 6.4502

                     31                     32                     33
                      A                      A                      A
 Frequencies --    642.4329               671.3401               714.3694
 Red. masses --      3.7143                 1.5143                 4.7981
 Frc consts  --      0.9032                 0.4021                 1.4427
 IR Inten    --     34.8804               113.4685                 8.0667

                     34                     35                     36
                      A                      A                      A
 Frequencies --    715.8988               729.3257               764.0287
 Red. masses --      1.9572                 1.5881                 2.9371
 Frc consts  --      0.5910                 0.4977                 1.0101
 IR Inten    --     61.3722                77.1363                26.6382

                     37                     38                     39
                      A                      A                      A
 Frequencies --    764.2936               780.5860               803.1374
 Red. masses --      2.2311                 2.0043                 2.1661
 Frc consts  --      0.7679                 0.7196                 0.8232
 IR Inten    --     31.3842               138.8917                10.0653

                     40                     41                     42
                      A                      A                      A
 Frequencies --    830.3920               854.6848               877.7419
 Red. masses --      2.2524                 1.2620                 1.2445
 Frc consts  --      0.9151                 0.5431                 0.5649
 IR Inten    --     41.7408                 2.0431                 0.2893

                     43                     44                     45
                      A                      A                      A
 Frequencies --    889.9558               916.3583               925.9677
 Red. masses --      4.1447                 2.6015                 1.9485
 Frc consts  --      1.9341                 1.2871                 0.9843
 IR Inten    --     19.1646                57.0024                 4.7483

                     46                     47                     48
                      A                      A                      A
 Frequencies --    960.5300               996.5879              1008.5986
 Red. masses --      1.4396                 1.3459                 1.3717
 Frc consts  --      0.7825                 0.7876                 0.8221
 IR Inten    --      0.4021                 0.3761                 0.4859

                     49                     50                     51
                      A                      A                      A
 Frequencies --   1011.8829              1014.7655              1019.5932
 Red. masses --      2.2864                 1.4019                 4.7022
 Frc consts  --      1.3793                 0.8505                 2.8801
 IR Inten    --     14.5458                 0.3768                27.8652

                     52                     53                     54
                      A                      A                      A
 Frequencies --   1025.1814              1032.3688              1050.8114
 Red. masses --      5.6957                 1.3093                 1.4350
 Frc consts  --      3.5269                 0.8221                 0.9336
 IR Inten    --      1.5365                 0.0473                66.8199

                     55                     56                     57
                      A                      A                      A
 Frequencies --   1060.1072              1060.3621              1064.4454
 Red. masses --      2.1728                 2.1956                 1.9769
 Frc consts  --      1.4387                 1.4545                 1.3197
 IR Inten    --     17.3674                28.0811                35.1983

                     58                     59                     60
                      A                      A                      A
 Frequencies --   1081.1931              1090.9273              1118.6866
 Red. masses --      1.8211                 1.4655                 1.5270
 Frc consts  --      1.2543                 1.0276                 1.1259
 IR Inten    --     27.9567                47.7553                15.6654

                     61                     62                     63
                      A                      A                      A
 Frequencies --   1126.4032              1130.5120              1179.9747
 Red. masses --      1.6011                 1.6319                 1.1148
 Frc consts  --      1.1969                 1.2288                 0.9145
 IR Inten    --     19.6697                47.7530                 5.0491

                     64                     65                     66
                      A                      A                      A
 Frequencies --   1187.3394              1207.3002              1224.4558
 Red. masses --      1.1281                 1.1301                 1.1296
 Frc consts  --      0.9370                 0.9705                 0.9979
 IR Inten    --      0.0580                29.1333                 0.4946

                     67                     68                     69
                      A                      A                      A
 Frequencies --   1254.9930              1274.9390              1287.7627
 Red. masses --      3.1999                 2.1824                 3.4238
 Frc consts  --      2.9694                 2.0901                 3.3452
 IR Inten    --    109.2937               564.8651                85.2210

                     70                     71                     72
                      A                      A                      A
 Frequencies --   1303.2617              1322.7164              1333.7311
 Red. masses --      1.3694                 2.5046                 2.9380
 Frc consts  --      1.3703                 2.5817                 3.0792
 IR Inten    --     74.4228               262.2464                74.6635

                     73                     74                     75
                      A                      A                      A
 Frequencies --   1341.4149              1361.3152              1365.2952
 Red. masses --      3.4834                 1.6052                 1.5467
 Frc consts  --      3.6930                 1.7526                 1.6986
 IR Inten    --    560.1487                27.3718                41.8146

                     76                     77                     78
                      A                      A                      A
 Frequencies --   1372.5029              1421.6244              1436.8369
 Red. masses --      1.3919                 1.3895                 2.0034
 Frc consts  --      1.5448                 1.6545                 2.4368
 IR Inten    --     12.2671               110.3854               388.0378

                     79                     80                     81
                      A                      A                      A
 Frequencies --   1451.5299              1464.6757              1492.6145
 Red. masses --      1.2743                 1.9151                 1.4198
 Frc consts  --      1.5818                 2.4206                 1.8636
 IR Inten    --     73.4099               192.0376                15.3984

                     82                     83                     84
                      A                      A                      A
 Frequencies --   1494.6072              1502.3569              1512.0702
 Red. masses --      1.3794                 1.0469                 1.1081
 Frc consts  --      1.8155                 1.3922                 1.4927
 IR Inten    --     36.4698                16.7300                22.2585

                     85                     86                     87
                      A                      A                      A
 Frequencies --   1536.2235              1546.0533              1547.1225
 Red. masses --      1.3937                 2.3353                 2.2464
 Frc consts  --      1.9378                 3.2888                 3.1680
 IR Inten    --    114.4822               149.9777                57.8834

                     88                     89                     90
                      A                      A                      A
 Frequencies --   1554.3584              1624.7337              1638.9181
 Red. masses --      1.5014                 3.7610                 1.1543
 Frc consts  --      2.1372                 5.8495                 1.8268
 IR Inten    --     78.8134              1537.7366                37.1762

                     91                     92                     93
                      A                      A                      A
 Frequencies --   1653.5396              1658.5729              1673.0603
 Red. masses --      5.3519                 4.1749                 5.8977
 Frc consts  --      8.6217                 6.7664                 9.7265
 IR Inten    --      5.2694               132.2508               221.3545

                     94                     95                     96
                      A                      A                      A
 Frequencies --   1676.9767              3074.2964              3089.2389
 Red. masses --      5.7896                 1.0391                 1.0331
 Frc consts  --      9.5929                 5.7860                 5.8087
 IR Inten    --      2.9526                13.0026                27.0498

                     97                     98                     99
                      A                      A                      A
 Frequencies --   3143.7425              3172.7151              3173.5113
 Red. masses --      1.1027                 1.1002                 1.1055
 Frc consts  --      6.4208                 6.5253                 6.5597
 IR Inten    --     29.0009                16.7385                 1.3541

                    100                    101                    102
                      A                      A                      A
 Frequencies --   3183.1000              3188.3480              3192.8327
 Red. masses --      1.0875                 1.0880                 1.0881
 Frc consts  --      6.4919                 6.5167                 6.5356
 IR Inten    --     18.2886                13.5050                 3.2695

                    103                    104                    105
                      A                      A                      A
 Frequencies --   3194.9092              3199.5125              3201.9039
 Red. masses --      1.1059                 1.0867                 1.0859
 Frc consts  --      6.6507                 6.5544                 6.5592
 IR Inten    --      8.7707                 5.5730                 9.0429

                    106                    107                    108
                      A                      A                      A
 Frequencies --   3202.3022              3209.9702              3219.0798
 Red. masses --      1.0929                 1.0925                 1.0976
 Frc consts  --      6.6034                 6.6326                 6.7010
 IR Inten    --     32.4615                24.7403                26.3771

                    109                    110                    111
                      A                      A                      A
 Frequencies --   3222.1745              3234.0598              3256.4759
 Red. masses --      1.0969                 1.0936                 1.0925
 Frc consts  --      6.7099                 6.7389                 6.8258
 IR Inten    --     24.7735                 9.3639                 1.7920

                    112                    113                    114
                      A                      A                      A
 Frequencies --   3501.6781              3579.0351              3693.6362
 Red. masses --      1.0526                 1.0945                 1.0754
 Frc consts  --      7.6042                 8.2604                 8.6443
 IR Inten    --     46.6236                51.3771                49.8153

 - Thermochemistry -
 -------------------
 Temperature   298.150 Kelvin.  Pressure   1.00000 Atm.
 Atom     1 has atomic number  6 and mass  12.00000

 Molecular mass:   268.15756 amu.
 Principal axes and moments of inertia in atomic units:
                           1         2         3
     Eigenvalues --  1996.23617********************
           X            1.00000   0.00133   0.00126
           Y           -0.00125   0.99792  -0.06444
           Z           -0.00134   0.06444   0.99792
 This molecule is an asymmetric top.
 Rotational symmetry number  1.
 Warning -- assumption of classical behavior for rotation
           may cause significant error
 Rotational temperatures (Kelvin)      0.04339     0.00699     0.00685
 Rotational constants (GHZ):           0.90407     0.14565     0.14280
    1 imaginary frequencies ignored.
 Zero-point vibrational energy     894424.3 (Joules/Mol)
                                  213.77254 (Kcal/Mol)
 Warning -- explicit consideration of  27 degrees of freedom as
           vibrations may cause significant error
 Vibrational temperatures:     14.11    26.94    53.28    84.74   103.93
          (Kelvin)            125.34   171.52   178.38   242.66   256.92
                              293.32   346.95   384.59   452.93   474.23
                              503.20   507.93   537.16   571.37   608.69
                              609.84   649.57   724.62   747.70   760.59
                              786.31   853.13   912.60   919.23   924.32
                              965.91  1027.82  1030.02  1049.34  1099.27
                             1099.65  1123.09  1155.54  1194.75  1229.70
                             1262.87  1280.45  1318.44  1332.26  1381.99
                             1433.87  1451.15  1455.87  1460.02  1466.97
                             1475.01  1485.35  1511.88  1525.26  1525.62
                             1531.50  1555.60  1569.60  1609.54  1620.64
                             1626.55  1697.72  1708.32  1737.04  1761.72
                             1805.66  1834.35  1852.80  1875.10  1903.09
                             1918.94  1930.00  1958.63  1964.36  1974.73
                             2045.40  2067.29  2088.43  2107.34  2147.54
                             2150.41  2161.56  2175.53  2210.28  2224.43
                             2225.96  2236.37  2337.63  2358.04  2379.07
                             2386.32  2407.16  2412.80  4423.23  4444.73
                             4523.14  4564.83  4565.97  4579.77  4587.32
                             4593.77  4596.76  4603.38  4606.83  4607.40
                             4618.43  4631.54  4635.99  4653.09  4685.34
                             5038.13  5149.43  5314.32

 Zero-point correction=                           0.340668 (Hartree/Particle)
 Thermal correction to Energy=                    0.358965
 Thermal correction to Enthalpy=                  0.359909
 Thermal correction to Gibbs Free Energy=         0.291391
 Sum of electronic and zero-point Energies=           -844.241236
 Sum of electronic and thermal Energies=              -844.222940
 Sum of electronic and thermal Enthalpies=            -844.221995
 Sum of electronic and thermal Free Energies=         -844.290514

                     E (Thermal)             CV                S
                      KCal/Mol        Cal/Mol-Kelvin    Cal/Mol-Kelvin
 Total                  225.254             71.195            144.209
 Electronic               0.000              0.000              0.000
 Translational            0.889              2.981             42.658
 Rotational               0.889              2.981             34.102
 Vibrational            223.477             65.234             67.449
 Vibration     1          0.593              1.987              8.050
 Vibration     2          0.593              1.986              6.765
 Vibration     3          0.594              1.982              5.412
 Vibration     4          0.596              1.974              4.494
 Vibration     5          0.598              1.967              4.091
 Vibration     6          0.601              1.958              3.724
 Vibration     7          0.609              1.933              3.113
 Vibration     8          0.610              1.929              3.037
 Vibration     9          0.625              1.881              2.450
 Vibration    10          0.629              1.869              2.343
 Vibration    11          0.640              1.834              2.098
 Vibration    12          0.658              1.777              1.794
 Vibration    13          0.672              1.733              1.614
 Vibration    14          0.702              1.645              1.337
 Vibration    15          0.712              1.616              1.262
 Vibration    16          0.727              1.576              1.167
 Vibration    17          0.729              1.569              1.153
 Vibration    18          0.745              1.527              1.066
 Vibration    19          0.764              1.476              0.973
 Vibration    20          0.785              1.420              0.882
 Vibration    21          0.786              1.418              0.879
 Vibration    22          0.810              1.358              0.791
 Vibration    23          0.859              1.242              0.649
 Vibration    24          0.875              1.206              0.611
 Vibration    25          0.884              1.187              0.590
 Vibration    26          0.902              1.147              0.551
 Vibration    27          0.951              1.047              0.462

 Optimization completed on the basis of negligible forces.
    -- Stationary point found.
 Normal termination of Gaussian 16 at Sun Jan 31 17:28:44 2021.
