 Gaussian 16, Revision A.03,
 Gaussian 16:  ES64L-G16RevA.03 25-Dec-2016

 ----------------------------------------------------------------------
 # wB97XD def2tzvp, opt=(ts, noeigen, calcfc, maxcycles=70, maxstep=1),
  freq=noraman, scrf=(iefpcm, solvent=water)
 ----------------------------------------------------------------------

 ------------------------
 0_iteration/TS-979-0.out
 ------------------------
 Symbolic Z-matrix:
 Charge =  0 Multiplicity = 1

 SCF Done:  E(RwB97XD) =  -1301.69331189     A.U. after   15 cycles
 SCF Done:  E(RwB97XD) =  -1301.69330383     A.U. after   10 cycles
 SCF Done:  E(RwB97XD) =  -1301.69330274     A.U. after   10 cycles
 SCF Done:  E(RwB97XD) =  -1301.69330955     A.U. after   10 cycles
 SCF Done:  E(RwB97XD) =  -1301.69332229     A.U. after   10 cycles
 SCF Done:  E(RwB97XD) =  -1301.69334382     A.U. after   10 cycles
 SCF Done:  E(RwB97XD) =  -1301.69337183     A.U. after   10 cycles
 SCF Done:  E(RwB97XD) =  -1301.69340737     A.U. after   10 cycles
 SCF Done:  E(RwB97XD) =  -1301.69345195     A.U. after    9 cycles
 SCF Done:  E(RwB97XD) =  -1301.69350330     A.U. after    9 cycles
 SCF Done:  E(RwB97XD) =  -1301.69419103     A.U. after   10 cycles
 SCF Done:  E(RwB97XD) =  -1301.69421675     A.U. after   10 cycles
 SCF Done:  E(RwB97XD) =  -1301.69423481     A.U. after   10 cycles
 SCF Done:  E(RwB97XD) =  -1301.69424743     A.U. after   10 cycles
 SCF Done:  E(RwB97XD) =  -1301.69425269     A.U. after   10 cycles
 SCF Done:  E(RwB97XD) =  -1301.69425370     A.U. after    9 cycles
 SCF Done:  E(RwB97XD) =  -1301.69425404     A.U. after    9 cycles
 SCF Done:  E(RwB97XD) =  -1301.69425413     A.U. after    8 cycles
 SCF Done:  E(RwB97XD) =  -1301.69425396     A.U. after    8 cycles
 Optimization completed.
    -- Stationary point found.
 Normal termination of Gaussian 16 at Sat Feb 27 23:02:25 2021.

 ---------------------------------------------------------------------
 #N Geom=AllCheck Guess=TCheck SCRF=Check GenChk RwB97XD/def2TZVP Freq
 ---------------------------------------------------------------------

 Structure from the checkpoint file:  "/beegfs/scratch/user/q/tla25/Gau-51372.chk"
 ------------------------
 0_iteration/TS-979-0.out
 ------------------------
 Charge =  0 Multiplicity = 1

                         Standard orientation:
 ---------------------------------------------------------------------
 Center     Atomic      Atomic             Coordinates (Angstroms)
 Number     Number       Type             X           Y           Z
 ---------------------------------------------------------------------
      1          6           0        0.661602   -0.527568   -0.525900
      2          6           0        1.938370    0.065401   -0.163070
      3          8           0        3.000621   -0.561350   -0.241664
      4          6           0       -0.550800    0.083653   -0.251878
      5          6           0       -0.515864   -0.857142    2.344148
      6          1           0       -0.439493   -0.653831    3.411205
      7          1           0       -1.311912   -1.576005    2.165758
      8          1           0        0.429342   -1.266317    1.987514
      9          7           0       -0.790122    0.365087    1.598569
     10          1           0       -1.720121    0.732189    1.769504
     11          1           0       -0.108636    1.084594    1.819885
     12         17           0       -2.003474   -0.833718   -0.616576
     13         17           0       -0.875209    1.818746   -0.716896
     14          6           0        0.703319   -1.962412   -1.000778
     15          1           0        0.379038   -2.678200   -0.239183
     16          1           0        0.083381   -2.120318   -1.884240
     17          1           0        1.731382   -2.204212   -1.259933
     18          7           0        1.971194    1.335467    0.381889
     19          1           0        1.296730    2.014561    0.070326
     20          1           0        2.905691    1.697388    0.483160
 ---------------------------------------------------------------------

 SCF Done:  E(RwB97XD) =  -1301.69425396     A.U. after    1 cycles

 The electronic state is 1-A.
 Alpha  occ. eigenvalues -- -101.71409-101.70695 -19.20140 -14.50188 -14.43692
 Alpha  occ. eigenvalues --  -10.45193 -10.38070 -10.32213 -10.27175 -10.26917
 Alpha  occ. eigenvalues --   -9.60002  -9.59306  -7.34671  -7.33930  -7.33772
 Alpha  occ. eigenvalues --   -7.33729  -7.33090  -7.33060  -1.12748  -1.06338
 Alpha  occ. eigenvalues --   -1.00593  -0.98949  -0.93217  -0.87740  -0.79797
 Alpha  occ. eigenvalues --   -0.77259  -0.71179  -0.65053  -0.63681  -0.60870
 Alpha  occ. eigenvalues --   -0.58964  -0.58163  -0.55926  -0.54179  -0.51184
 Alpha  occ. eigenvalues --   -0.49873  -0.48862  -0.48288  -0.47362  -0.45974
 Alpha  occ. eigenvalues --   -0.45358  -0.42981  -0.41612  -0.39634  -0.39538
 Alpha  occ. eigenvalues --   -0.35896  -0.33698  -0.27639
 Alpha virt. eigenvalues --    0.04020   0.05778   0.08859   0.10532   0.13268
 Alpha virt. eigenvalues --    0.14157   0.15843   0.16528   0.17338   0.18592
 Alpha virt. eigenvalues --    0.19633   0.20139   0.20264   0.21927   0.22385

 Mulliken charges:
               1
     1  C   -0.271388
     2  C    0.297129
     3  O   -0.526302
     4  C    0.156805
     5  C   -0.302726
     6  H    0.167414
     7  H    0.161940
     8  H    0.165496
     9  N   -0.295059
    10  H    0.297248
    11  H    0.284093
    12  Cl  -0.055012
    13  Cl  -0.114302
    14  C   -0.375227
    15  H    0.121844
    16  H    0.127330
    17  H    0.136381
    18  N   -0.490597
    19  H    0.255658
    20  H    0.259275
 Sum of Mulliken charges =  -0.00000

 Dipole moment (field-independent basis, Debye):
    X=             -5.7229    Y=              3.0207    Z=              5.9413  Tot=              8.7849
 Quadrupole moment (field-independent basis, Debye-Ang):
   XX=            -88.5887   YY=            -69.9393   ZZ=            -65.9722
   XY=              8.6933   XZ=             -2.8480   YZ=              1.1072

  Exact polarizability: 177.106  -5.719 149.499  -6.295   4.367 132.634
 Approx polarizability: 143.645  -5.569 127.118  -3.585   3.950 112.372

 ******    1 imaginary frequencies (negative Signs) ******

                      1                      2                      3
                      A                      A                      A
 Frequencies --   -406.0009                73.2496                92.7150
 Red. masses --      5.6402                 3.6421                 2.7117
 Frc consts  --      0.5478                 0.0115                 0.0137
 IR Inten    --    585.1999                 5.8739                24.3541

                      4                      5                      6
                      A                      A                      A
 Frequencies --    103.0008               133.1571               155.8334
 Red. masses --      3.9827                 1.3214                 2.4735
 Frc consts  --      0.0249                 0.0138                 0.0354
 IR Inten    --      1.9504                 0.3173                 1.5358

                      7                      8                      9
                      A                      A                      A
 Frequencies --    180.1043               205.9052               221.8638
 Red. masses --      1.5366                 4.5218                 2.4994
 Frc consts  --      0.0294                 0.1130                 0.0725
 IR Inten    --      0.3160                 9.7195                 4.0101

                     10                     11                     12
                      A                      A                      A
 Frequencies --    262.0613               302.8195               312.1224
 Red. masses --     10.0923                 4.9804                 4.1647
 Frc consts  --      0.4084                 0.2691                 0.2390
 IR Inten    --      2.4078                 0.5987                15.9665

                     13                     14                     15
                      A                      A                      A
 Frequencies --    327.6149               366.0665               407.0520
 Red. masses --      4.0640                 4.7150                 5.3568
 Frc consts  --      0.2570                 0.3723                 0.5229
 IR Inten    --     30.5981                29.1886                 7.7264

                     16                     17                     18
                      A                      A                      A
 Frequencies --    489.8760               508.3691               555.5010
 Red. masses --      1.2183                 3.9694                 1.9019
 Frc consts  --      0.1723                 0.6044                 0.3458
 IR Inten    --     44.8902               120.8305               319.4421

                     19                     20                     21
                      A                      A                      A
 Frequencies --    583.8629               635.1040               697.1055
 Red. masses --      1.8541                 3.4194                 1.6408
 Frc consts  --      0.3724                 0.8126                 0.4698
 IR Inten    --     73.4842                62.0042                50.1924

                     22                     23                     24
                      A                      A                      A
 Frequencies --    786.7903               798.8677               865.6740
 Red. masses --      6.6341                 5.6570                 3.0598
 Frc consts  --      2.4196                 2.1271                 1.3510
 IR Inten    --    142.7778               183.7790                34.8937

                     25                     26                     27
                      A                      A                      A
 Frequencies --   1006.8857              1041.7923              1068.3107
 Red. masses --      1.1482                 1.6147                 1.2528
 Frc consts  --      0.6859                 1.0326                 0.8424
 IR Inten    --     64.6939               239.5139                20.9732

                     28                     29                     30
                      A                      A                      A
 Frequencies --   1073.7152              1086.4940              1093.8832
 Red. masses --      1.4224                 3.2997                 2.0699
 Frc consts  --      0.9662                 2.2950                 1.4593
 IR Inten    --     14.1489                86.2749               130.9200

                     31                     32                     33
                      A                      A                      A
 Frequencies --   1197.9804              1235.7043              1348.7853
 Red. masses --      2.7145                 1.3819                 1.3627
 Frc consts  --      2.2953                 1.2432                 1.4606
 IR Inten    --     23.9505                38.8062                52.1816

                     34                     35                     36
                      A                      A                      A
 Frequencies --   1374.1228              1407.3417              1437.3549
 Red. masses --      3.4959                 1.6401                 2.2595
 Frc consts  --      3.8892                 1.9139                 2.7503
 IR Inten    --    770.8801                56.1569               399.7112

                     37                     38                     39
                      A                      A                      A
 Frequencies --   1462.5169              1491.4101              1495.5174
 Red. masses --      1.3576                 1.0512                 1.0414
 Frc consts  --      1.7109                 1.3776                 1.3722
 IR Inten    --     56.7820                17.6568                66.6651

                     40                     41                     42
                      A                      A                      A
 Frequencies --   1499.0783              1501.9130              1610.1250
 Red. masses --      1.0693                 1.0450                 1.4105
 Frc consts  --      1.4159                 1.3888                 2.1544
 IR Inten    --     59.3504                19.0751               394.8287

                     43                     44                     45
                      A                      A                      A
 Frequencies --   1629.7607              1659.8703              3035.2018
 Red. masses --      1.1050                 3.6968                 1.0470
 Frc consts  --      1.7293                 6.0010                 5.6832
 IR Inten    --    134.7382               679.7583                78.5900

                     46                     47                     48
                      A                      A                      A
 Frequencies --   3075.9181              3100.7574              3155.5441
 Red. masses --      1.0329                 1.0932                 1.1049
 Frc consts  --      5.7576                 6.1925                 6.4822
 IR Inten    --     25.5275                41.1460                 6.2073

                     49                     50                     51
                      A                      A                      A
 Frequencies --   3160.2673              3177.6302              3507.7423
 Red. masses --      1.0974                 1.1059                 1.0507
 Frc consts  --      6.4575                 6.5793                 7.6168
 IR Inten    --      6.3001                 8.5435                53.6522

                     52                     53                     54
                      A                      A                      A
 Frequencies --   3587.3726              3595.6181              3695.6618
 Red. masses --      1.0479                 1.0966                 1.1002
 Frc consts  --      7.9455                 8.3528                 8.8534
 IR Inten    --     37.6780                90.0616               108.2172

 - Thermochemistry -
 -------------------
 Temperature   298.150 Kelvin.  Pressure   1.00000 Atm.
 Atom     1 has atomic number  6 and mass  12.00000

 Molecular mass:   184.01702 amu.
 Principal axes and moments of inertia in atomic units:
                           1         2         3
     Eigenvalues --  1585.732392284.963782557.98444
           X            0.99933   0.01591  -0.03291
           Y           -0.01425   0.99865   0.05005
           Z            0.03366  -0.04955   0.99820
 This molecule is an asymmetric top.
 Rotational symmetry number  1.
 Warning -- assumption of classical behavior for rotation
           may cause significant error
 Rotational temperatures (Kelvin)      0.05462     0.03791     0.03386
 Rotational constants (GHZ):           1.13811     0.78983     0.70553
    1 imaginary frequencies ignored.
 Zero-point vibrational energy     411987.9 (Joules/Mol)
                                   98.46746 (Kcal/Mol)
 Warning -- explicit consideration of  18 degrees of freedom as
           vibrations may cause significant error
 Vibrational temperatures:    105.39   133.40   148.20   191.58   224.21
          (Kelvin)            259.13   296.25   319.21   377.05   435.69
                              449.07   471.36   526.69   585.66   704.82
                              731.43   799.24   840.05   913.77  1002.98
                             1132.02  1149.39  1245.51  1448.68  1498.91
                             1537.06  1544.84  1563.22  1573.85  1723.63
                             1777.90  1940.60  1977.06  2024.85  2068.03
                             2104.24  2145.81  2151.72  2156.84  2160.92
                             2316.61  2344.86  2388.18  4366.98  4425.56
                             4461.30  4540.12  4546.92  4571.90  5046.86
                             5161.43  5173.29  5317.23

 Zero-point correction=                           0.156918 (Hartree/Particle)
 Thermal correction to Energy=                    0.168872
 Thermal correction to Enthalpy=                  0.169816
 Thermal correction to Gibbs Free Energy=         0.118950
 Sum of electronic and zero-point Energies=          -1301.537336
 Sum of electronic and thermal Energies=             -1301.525382
 Sum of electronic and thermal Enthalpies=           -1301.524438
 Sum of electronic and thermal Free Energies=        -1301.575304

                     E (Thermal)             CV                S
                      KCal/Mol        Cal/Mol-Kelvin    Cal/Mol-Kelvin
 Total                  105.969             42.443            107.056
 Electronic               0.000              0.000              0.000
 Translational            0.889              2.981             41.536
 Rotational               0.889              2.981             30.606
 Vibrational            104.191             36.481             34.915
 Vibration     1          0.599              1.967              4.064
 Vibration     2          0.602              1.954              3.602
 Vibration     3          0.605              1.947              3.397
 Vibration     4          0.613              1.920              2.900
 Vibration     5          0.620              1.896              2.600
 Vibration     6          0.629              1.867              2.327
 Vibration     7          0.640              1.831              2.080
 Vibration     8          0.648              1.808              1.944
 Vibration     9          0.669              1.742              1.648
 Vibration    10          0.694              1.668              1.401
 Vibration    11          0.700              1.651              1.351
 Vibration    12          0.711              1.620              1.272
 Vibration    13          0.739              1.542              1.096
 Vibration    14          0.772              1.455              0.937
 Vibration    15          0.846              1.272              0.684
 Vibration    16          0.864              1.231              0.638
 Vibration    17          0.911              1.128              0.533
 Vibration    18          0.941              1.066              0.478

 Optimization completed.
    -- Stationary point found.
 Normal termination of Gaussian 16 at Sat Feb 27 23:16:57 2021.
