 Gaussian 16, Revision A.03,
 Gaussian 16:  ES64L-G16RevA.03 25-Dec-2016

 ----------------------------------------------------------------------
 # wB97XD def2tzvp, opt=(ts, noeigen, calcfc, maxcycles=70, maxstep=8),
  freq=noraman, scrf=(iefpcm, solvent=water)
 ----------------------------------------------------------------------

 ------------------------
 1_iteration/TS-936-1.out
 ------------------------
 Symbolic Z-matrix:
 Charge =  0 Multiplicity = 1

 SCF Done:  E(RwB97XD) =  -3552.05262585     A.U. after   15 cycles
 SCF Done:  E(RwB97XD) =  -3552.05513434     A.U. after   14 cycles
 SCF Done:  E(RwB97XD) =  -3552.05789132     A.U. after   14 cycles
 SCF Done:  E(RwB97XD) =  -3552.05906440     A.U. after   13 cycles
 SCF Done:  E(RwB97XD) =  -3552.05964728     A.U. after   12 cycles
 SCF Done:  E(RwB97XD) =  -3552.05985920     A.U. after   12 cycles
 SCF Done:  E(RwB97XD) =  -3552.05998418     A.U. after   12 cycles
 SCF Done:  E(RwB97XD) =  -3552.06006018     A.U. after   12 cycles
 SCF Done:  E(RwB97XD) =  -3552.06005741     A.U. after   11 cycles
 SCF Done:  E(RwB97XD) =  -3552.06000443     A.U. after   12 cycles
 SCF Done:  E(RwB97XD) =  -3552.06007300     A.U. after   12 cycles
 SCF Done:  E(RwB97XD) =  -3552.06007371     A.U. after   10 cycles
 SCF Done:  E(RwB97XD) =  -3552.06007413     A.U. after    9 cycles
 SCF Done:  E(RwB97XD) =  -3552.06007400     A.U. after    8 cycles
 SCF Done:  E(RwB97XD) =  -3552.06007387     A.U. after    6 cycles
 SCF Done:  E(RwB97XD) =  -3552.06007386     A.U. after    6 cycles
 Optimization completed.
    -- Stationary point found.
 Normal termination of Gaussian 16 at Sun Feb 28 16:16:37 2021.

 ---------------------------------------------------------------------
 #N Geom=AllCheck Guess=TCheck SCRF=Check GenChk RwB97XD/def2TZVP Freq
 ---------------------------------------------------------------------

 Structure from the checkpoint file:  "/beegfs/scratch/user/q/tla25/Gau-16125.chk"
 ------------------------
 1_iteration/TS-936-1.out
 ------------------------
 Charge =  0 Multiplicity = 1

                         Standard orientation:
 ---------------------------------------------------------------------
 Center     Atomic      Atomic             Coordinates (Angstroms)
 Number     Number       Type             X           Y           Z
 ---------------------------------------------------------------------
      1          6           0        0.097960    0.400015   -0.520554
      2          6           0       -0.826029   -0.191805    0.405745
      3          8           0       -0.471881   -0.720181    1.462549
      4          6           0        1.457908    0.265930   -0.405637
      5          6           0        1.450733    2.513047    1.420436
      6          1           0        1.370000    2.879962    2.444509
      7          1           0        2.078724    3.190387    0.845296
      8          1           0        0.450863    2.494873    0.977502
      9          7           0        1.998233    1.171991    1.359888
     10          1           0        2.998099    1.135400    1.511246
     11          1           0        1.530927    0.538749    1.999257
     12         17           0        2.432182    1.175973   -1.526770
     13         35           0        2.275952   -1.428924    0.019526
     14          1           0       -0.262468    1.122337   -1.237119
     15          6           0       -2.288883   -0.102218    0.081719
     16          6           0       -3.210901   -0.166978    1.123597
     17          6           0       -4.569795   -0.100646    0.865501
     18          6           0       -5.023428    0.018039   -0.441881
     19          6           0       -4.112639    0.072518   -1.487066
     20          6           0       -2.751774    0.018223   -1.226249
     21          1           0       -2.847375   -0.266401    2.138073
     22          1           0       -5.277787   -0.142095    1.683519
     23          1           0       -6.085781    0.065413   -0.645489
     24          1           0       -4.462062    0.154745   -2.508339
     25          1           0       -2.050043    0.048171   -2.050057
 ---------------------------------------------------------------------

 SCF Done:  E(RwB97XD) =  -3552.06007386     A.U. after    1 cycles

 The electronic state is 1-A.
 Alpha  occ. eigenvalues -- -483.14031-101.71671 -62.68876 -56.48011 -56.47630
 Alpha  occ. eigenvalues --  -56.47615 -19.22459 -14.47263 -10.44188 -10.37055
 Alpha  occ. eigenvalues --  -10.31335 -10.29988 -10.29694 -10.29563 -10.29408
 Alpha  occ. eigenvalues --  -10.29351 -10.29308 -10.27552  -9.60237  -8.82987
 Alpha  occ. eigenvalues --   -7.34911  -7.34006  -7.33968  -6.65196  -6.63984
 Alpha  occ. eigenvalues --   -6.63939  -2.75573  -2.75231  -2.75195  -2.74215
 Alpha  occ. eigenvalues --   -2.74215  -1.13252  -1.03497  -0.99664  -0.97035
 Alpha  occ. eigenvalues --   -0.90105  -0.87721  -0.85585  -0.84531  -0.78333
 Alpha  occ. eigenvalues --   -0.74545  -0.70956  -0.68299  -0.63530  -0.62469
 Alpha  occ. eigenvalues --   -0.60988  -0.57456  -0.56891  -0.56180  -0.54769
 Alpha  occ. eigenvalues --   -0.54149  -0.52427  -0.51741  -0.51405  -0.48983
 Alpha  occ. eigenvalues --   -0.48492  -0.47592  -0.46777  -0.45571  -0.44361
 Alpha  occ. eigenvalues --   -0.42923  -0.42125  -0.40326  -0.37788  -0.36803
 Alpha  occ. eigenvalues --   -0.34312  -0.34231  -0.33452  -0.30086
 Alpha virt. eigenvalues --   -0.00492   0.03054   0.04934   0.06592   0.09383
 Alpha virt. eigenvalues --    0.11276   0.13378   0.13839   0.15307   0.16384
 Alpha virt. eigenvalues --    0.16483   0.17262   0.18307   0.18922   0.19965

 Mulliken charges:
               1
     1  C   -0.547792
     2  C    0.339056
     3  O   -0.491542
     4  C    0.257832
     5  C   -0.274986
     6  H    0.152140
     7  H    0.152493
     8  H    0.142425
     9  N   -0.393776
    10  H    0.286057
    11  H    0.278739
    12  Cl  -0.049084
    13  Br  -0.049411
    14  H    0.182655
    15  C    0.141170
    16  C   -0.226647
    17  C   -0.126150
    18  C   -0.133761
    19  C   -0.143306
    20  C   -0.237487
    21  H    0.143274
    22  H    0.145265
    23  H    0.147964
    24  H    0.145660
    25  H    0.159215
 Sum of Mulliken charges =  -0.00000

 Dipole moment (field-independent basis, Debye):
    X=              1.1469    Y=              4.6849    Z=              0.7639  Tot=              4.8834
 Quadrupole moment (field-independent basis, Debye-Ang):
   XX=            -84.8619   YY=           -100.5778   ZZ=            -95.9889
   XY=              4.6584   XZ=              9.4639   YZ=              5.5054

  Exact polarizability: 304.542   8.805 183.645   2.917  -7.188 224.515
 Approx polarizability: 220.630   3.107 156.814   2.283 -11.064 196.660

 ******    1 imaginary frequencies (negative Signs) ******

                      1                      2                      3
                      A                      A                      A
 Frequencies --   -365.9215                33.5887                39.5998
 Red. masses --      5.1700                 5.8766                 3.9449
 Frc consts  --      0.4079                 0.0039                 0.0036
 IR Inten    --    734.0281                 2.8504                 0.8354

                      4                      5                      6
                      A                      A                      A
 Frequencies --     70.4830                84.3308               100.3644
 Red. masses --      5.4994                 2.5939                 4.8122
 Frc consts  --      0.0161                 0.0109                 0.0286
 IR Inten    --     13.8516                 3.2971                18.4998

                      7                      8                      9
                      A                      A                      A
 Frequencies --    126.5646               146.0520               165.7334
 Red. masses --      5.0064                 3.7206                 2.0936
 Frc consts  --      0.0472                 0.0468                 0.0339
 IR Inten    --      3.6220                 3.7705                 2.8846

                     10                     11                     12
                      A                      A                      A
 Frequencies --    191.4404               209.3217               253.8601
 Red. masses --      1.8994                12.9367                 5.4182
 Frc consts  --      0.0410                 0.3340                 0.2057
 IR Inten    --      1.4163                 6.4566                32.0037

                     13                     14                     15
                      A                      A                      A
 Frequencies --    273.7294               310.3617               326.7239
 Red. masses --      4.3431                 7.6940                 9.8121
 Frc consts  --      0.1917                 0.4367                 0.6171
 IR Inten    --      2.9785                15.7947                 1.1476

                     16                     17                     18
                      A                      A                      A
 Frequencies --    397.3655               420.5595               456.8008
 Red. masses --      5.9720                 2.8708                 3.8755
 Frc consts  --      0.5556                 0.2992                 0.4765
 IR Inten    --      9.6923                 0.5017                55.9190

                     19                     20                     21
                      A                      A                      A
 Frequencies --    493.1647               565.3930               634.8319
 Red. masses --      4.6511                 2.1280                 5.9161
 Frc consts  --      0.6665                 0.4008                 1.4048
 IR Inten    --     27.7693                 9.1651                 2.4056

                     22                     23                     24
                      A                      A                      A
 Frequencies --    645.0109               678.0378               711.1305
 Red. masses --      2.4216                 3.2355                 2.3777
 Frc consts  --      0.5936                 0.8764                 0.7084
 IR Inten    --    121.9716                56.6787                23.7583

                     25                     26                     27
                      A                      A                      A
 Frequencies --    722.1001               757.6807               792.0423
 Red. masses --      1.4795                 2.0187                 6.4404
 Frc consts  --      0.4545                 0.6828                 2.3804
 IR Inten    --     61.7152               180.0993               143.5960

                     28                     29                     30
                      A                      A                      A
 Frequencies --    835.0892               881.3156               933.8961
 Red. masses --      3.1302                 1.2486                 4.0568
 Frc consts  --      1.2861                 0.5714                 2.0847
 IR Inten    --     18.8744                 0.4360               118.2461

                     31                     32                     33
                      A                      A                      A
 Frequencies --    962.5494               974.3398              1018.2695
 Red. masses --      1.1860                 1.4756                 1.1796
 Frc consts  --      0.6474                 0.8253                 0.7206
 IR Inten    --    138.0649                 1.5093                36.1633

                     34                     35                     36
                      A                      A                      A
 Frequencies --   1019.0497              1025.9191              1035.7518
 Red. masses --      1.3216                 5.8521                 1.3207
 Frc consts  --      0.8086                 3.6290                 0.8348
 IR Inten    --     12.5744                 3.5106                 0.5564

                     37                     38                     39
                      A                      A                      A
 Frequencies --   1056.9710              1093.8940              1097.1176
 Red. masses --      2.4146                 3.8518                 2.4740
 Frc consts  --      1.5893                 2.7156                 1.7545
 IR Inten    --     22.3323                39.9887                34.3772

                     40                     41                     42
                      A                      A                      A
 Frequencies --   1116.4848              1182.9286              1184.7357
 Red. masses --      1.7473                 1.4270                 1.1376
 Frc consts  --      1.2833                 1.1765                 0.9407
 IR Inten    --      4.5455                14.2204                 3.4194

                     43                     44                     45
                      A                      A                      A
 Frequencies --   1204.0204              1247.6144              1310.1431
 Red. masses --      1.1349                 1.8408                 3.0397
 Frc consts  --      0.9693                 1.6882                 3.0741
 IR Inten    --     22.5144               504.1711                30.2799

                     46                     47                     48
                      A                      A                      A
 Frequencies --   1337.6701              1342.5657              1355.7856
 Red. masses --      2.8277                 1.6909                 1.5119
 Frc consts  --      2.9811                 1.7957                 1.6374
 IR Inten    --     12.1818                 0.7255                14.7652

                     49                     50                     51
                      A                      A                      A
 Frequencies --   1452.6507              1471.2762              1488.4479
 Red. masses --      1.4024                 2.3026                 1.0566
 Frc consts  --      1.7436                 2.9366                 1.3793
 IR Inten    --    487.2764               972.5217                15.3804

                     52                     53                     54
                      A                      A                      A
 Frequencies --   1495.7403              1502.5015              1540.3600
 Red. masses --      2.3796                 1.0349                 2.3078
 Frc consts  --      3.1366                 1.3766                 3.2262
 IR Inten    --    335.7367                 2.6540                19.4445

                     55                     56                     57
                      A                      A                      A
 Frequencies --   1635.4737              1646.2747              1671.2501
 Red. masses --      1.3660                 3.2153                 5.8946
 Frc consts  --      2.1527                 5.1342                 9.7003
 IR Inten    --    211.5671                28.8721                57.8827

                     58                     59                     60
                      A                      A                      A
 Frequencies --   1680.1706              3045.2255              3114.9961
 Red. masses --      7.3548                 1.0373                 1.1005
 Frc consts  --     12.2328                 5.6675                 6.2914
 IR Inten    --    182.3166                39.6855                17.0826

                     61                     62                     63
                      A                      A                      A
 Frequencies --   3159.8459              3196.4683              3203.9224
 Red. masses --      1.1036                 1.0860                 1.0885
 Frc consts  --      6.4921                 6.5376                 6.5834
 IR Inten    --     15.0178                 0.6592                 3.9262

                     64                     65                     66
                      A                      A                      A
 Frequencies --   3211.7182              3219.3210              3224.9601
 Red. masses --      1.0921                 1.0946                 1.0983
 Frc consts  --      6.6371                 6.6839                 6.7299
 IR Inten    --     16.0031                23.3110                18.3398

                     67                     68                     69
                      A                      A                      A
 Frequencies --   3238.6902              3519.7067              3618.9939
 Red. masses --      1.0892                 1.0513                 1.0968
 Frc consts  --      6.7310                 7.6734                 8.4633
 IR Inten    --      1.0675                34.2817                89.1267

 - Thermochemistry -
 -------------------
 Temperature   298.150 Kelvin.  Pressure   1.00000 Atm.
 Atom     1 has atomic number  6 and mass  12.00000

 Molecular mass:   274.97125 amu.
 Principal axes and moments of inertia in atomic units:
                           1         2         3
     Eigenvalues --  2212.373487695.747467948.05287
           X            0.99960   0.02202   0.01754
           Y           -0.02533   0.97526   0.21958
           Z           -0.01227  -0.21994   0.97544
 This molecule is an asymmetric top.
 Rotational symmetry number  1.
 Warning -- assumption of classical behavior for rotation
           may cause significant error
 Rotational temperatures (Kelvin)      0.03915     0.01125     0.01090
 Rotational constants (GHZ):           0.81575     0.23451     0.22707
    1 imaginary frequencies ignored.
 Zero-point vibrational energy     503390.8 (Joules/Mol)
                                  120.31330 (Kcal/Mol)
 Warning -- explicit consideration of  19 degrees of freedom as
           vibrations may cause significant error
 Vibrational temperatures:     48.33    56.98   101.41   121.33   144.40
          (Kelvin)            182.10   210.14   238.45   275.44   301.17
                              365.25   393.84   446.54   470.08   571.72
                              605.09   657.23   709.55   813.47   913.38
                              928.03   975.55  1023.16  1038.94  1090.13
                             1139.57  1201.51  1268.02  1343.67  1384.89
                             1401.86  1465.06  1466.19  1476.07  1490.22
                             1520.75  1573.87  1578.51  1606.37  1701.97
                             1704.57  1732.32  1795.04  1885.00  1924.61
                             1931.65  1950.67  2090.04  2116.84  2141.54
                             2152.04  2161.76  2216.23  2353.08  2368.62
                             2404.56  2417.39  4381.40  4481.78  4546.31
                             4599.00  4609.73  4620.95  4631.88  4640.00
                             4659.75  5064.07  5206.93

 Zero-point correction=                           0.191731 (Hartree/Particle)
 Thermal correction to Energy=                    0.206080
 Thermal correction to Enthalpy=                  0.207024
 Thermal correction to Gibbs Free Energy=         0.148001
 Sum of electronic and zero-point Energies=          -3551.868342
 Sum of electronic and thermal Energies=             -3551.853994
 Sum of electronic and thermal Enthalpies=           -3551.853050
 Sum of electronic and thermal Free Energies=        -3551.912073

                     E (Thermal)             CV                S
                      KCal/Mol        Cal/Mol-Kelvin    Cal/Mol-Kelvin
 Total                  129.317             51.252            124.225
 Electronic               0.000              0.000              0.000
 Translational            0.889              2.981             42.733
 Rotational               0.889              2.981             33.270
 Vibrational            127.539             45.291             48.222
 Vibration     1          0.594              1.983              5.605
 Vibration     2          0.594              1.981              5.279
 Vibration     3          0.598              1.968              4.140
 Vibration     4          0.601              1.960              3.787
 Vibration     5          0.604              1.949              3.447
 Vibration     6          0.611              1.927              2.998
 Vibration     7          0.617              1.907              2.723
 Vibration     8          0.624              1.885              2.483
 Vibration     9          0.634              1.852              2.214
 Vibration    10          0.642              1.827              2.050
 Vibration    11          0.665              1.756              1.704
 Vibration    12          0.676              1.722              1.573
 Vibration    13          0.699              1.654              1.360
 Vibration    14          0.710              1.622              1.276
 Vibration    15          0.764              1.476              0.972
 Vibration    16          0.783              1.426              0.890
 Vibration    17          0.815              1.346              0.775
 Vibration    18          0.849              1.265              0.675
 Vibration    19          0.921              1.106              0.513

 Optimization completed.
    -- Stationary point found.
 Normal termination of Gaussian 16 at Sun Feb 28 16:57:58 2021.
