 Gaussian 16, Revision A.03,
 Gaussian 16:  ES64L-G16RevA.03 25-Dec-2016

 ----------------------------------------------------------------------
 # wB97XD def2tzvp, opt=(ts, noeigen, calcfc, maxcycles=70, maxstep=3),
  freq=noraman, scrf=(iefpcm, solvent=water)
 ----------------------------------------------------------------------

 ------------------------
 0_iteration/TS-946-0.out
 ------------------------
 Symbolic Z-matrix:
 Charge =  0 Multiplicity = 1

 SCF Done:  E(RwB97XD) =  -5933.91128795     A.U. after   15 cycles
 SCF Done:  E(RwB97XD) =  -5933.91094093     A.U. after   13 cycles
 SCF Done:  E(RwB97XD) =  -5933.91065127     A.U. after   13 cycles
 SCF Done:  E(RwB97XD) =  -5933.91043497     A.U. after   13 cycles
 SCF Done:  E(RwB97XD) =  -5933.91037797     A.U. after   13 cycles
 SCF Done:  E(RwB97XD) =  -5933.91061812     A.U. after   14 cycles
 SCF Done:  E(RwB97XD) =  -5933.91107551     A.U. after   13 cycles
 SCF Done:  E(RwB97XD) =  -5933.91152412     A.U. after   13 cycles
 SCF Done:  E(RwB97XD) =  -5933.91198165     A.U. after   13 cycles
 SCF Done:  E(RwB97XD) =  -5933.91244088     A.U. after   12 cycles
 SCF Done:  E(RwB97XD) =  -5933.92437242     A.U. after   11 cycles
 SCF Done:  E(RwB97XD) =  -5933.92439119     A.U. after   12 cycles
 SCF Done:  E(RwB97XD) =  -5933.92440702     A.U. after   10 cycles
 SCF Done:  E(RwB97XD) =  -5933.92438028     A.U. after   12 cycles
 SCF Done:  E(RwB97XD) =  -5933.92441288     A.U. after   12 cycles
 SCF Done:  E(RwB97XD) =  -5933.92437284     A.U. after   12 cycles
 SCF Done:  E(RwB97XD) =  -5933.92441287     A.U. after   12 cycles
 SCF Done:  E(RwB97XD) =  -5933.92441332     A.U. after   10 cycles
 SCF Done:  E(RwB97XD) =  -5933.92441343     A.U. after    8 cycles
 Optimization completed.
    -- Stationary point found.
 Normal termination of Gaussian 16 at Tue Apr 13 01:29:35 2021.

 ---------------------------------------------------------------------
 #N Geom=AllCheck Guess=TCheck SCRF=Check GenChk RwB97XD/def2TZVP Freq
 ---------------------------------------------------------------------

 Structure from the checkpoint file:  "/beegfs/scratch/user/q/tla25/Gau-302624.chk"
 ------------------------
 0_iteration/TS-946-0.out
 ------------------------
 Charge =  0 Multiplicity = 1

                         Standard orientation:
 ---------------------------------------------------------------------
 Center     Atomic      Atomic             Coordinates (Angstroms)
 Number     Number       Type             X           Y           Z
 ---------------------------------------------------------------------
      1          6           0        0.586769    0.430228   -0.113794
      2          6           0        0.648306    1.859774    0.126784
      3          8           0        1.683488    2.490598   -0.059834
      4          6           0       -0.519687   -0.412048   -0.031012
      5          6           0        0.188302   -0.980525    2.623923
      6          1           0        0.836604   -0.115111    2.489934
      7          1           0       -0.069369   -1.074972    3.678076
      8          1           0        0.712392   -1.875516    2.295786
      9          7           0       -1.005674   -0.797027    1.807724
     10          1           0       -1.598235   -1.620622    1.799652
     11          1           0       -1.563037   -0.016334    2.136569
     12         17           0       -0.344811   -2.071543   -0.569809
     13         35           0       -2.260862    0.231175   -0.614576
     14         35           0        2.303502   -0.348353   -0.435858
     15          6           0       -0.547940    2.627016    0.652847
     16          1           0       -1.176155    2.063309    1.338168
     17          1           0       -0.162878    3.507134    1.163637
     18          1           0       -1.172638    2.957305   -0.177737
 ---------------------------------------------------------------------

 SCF Done:  E(RwB97XD) =  -5933.92441343     A.U. after    1 cycles

 The electronic state is 1-A.
 Alpha  occ. eigenvalues -- -483.14834-483.12511-101.72084 -62.69682 -62.67342
 Alpha  occ. eigenvalues --  -56.48823 -56.48430 -56.48418 -56.46467 -56.46104
 Alpha  occ. eigenvalues --  -56.46090 -19.22101 -14.50271 -10.46190 -10.37585
 Alpha  occ. eigenvalues --  -10.32710 -10.32422 -10.28278  -9.60664  -8.83791
 Alpha  occ. eigenvalues --   -8.81457  -7.35359  -7.34424  -7.34373  -6.66019
 Alpha  occ. eigenvalues --   -6.64773  -6.64735  -6.63633  -6.62469  -6.62431
 Alpha  occ. eigenvalues --   -2.76389  -2.76040  -2.76011  -2.75003  -2.75003
 Alpha  occ. eigenvalues --   -2.74018  -2.73683  -2.73653  -2.72711  -2.72711
 Alpha  occ. eigenvalues --   -1.13353  -1.06108  -1.00572  -0.91746  -0.90197
 Alpha  occ. eigenvalues --   -0.84797  -0.80584  -0.79840  -0.71217  -0.64846
 Alpha  occ. eigenvalues --   -0.61039  -0.58893  -0.57554  -0.56076  -0.55347
 Alpha  occ. eigenvalues --   -0.52785  -0.51115  -0.49777  -0.48907  -0.48366
 Alpha  occ. eigenvalues --   -0.45489  -0.44924  -0.42883  -0.41316  -0.39494
 Alpha  occ. eigenvalues --   -0.38534  -0.38320  -0.36363  -0.33349  -0.29029
 Alpha virt. eigenvalues --    0.00896   0.02757   0.04898   0.09734   0.12252
 Alpha virt. eigenvalues --    0.13467   0.14224   0.14535   0.15978   0.18319
 Alpha virt. eigenvalues --    0.18772   0.19393   0.20649   0.21433   0.22649

 Mulliken charges:
               1
     1  C   -0.228224
     2  C    0.234126
     3  O   -0.459382
     4  C    0.121995
     5  C   -0.292317
     6  H    0.161718
     7  H    0.169688
     8  H    0.164234
     9  N   -0.327677
    10  H    0.300041
    11  H    0.287681
    12  Cl  -0.025474
    13  Br  -0.033463
    14  Br  -0.117676
    15  C   -0.364435
    16  H    0.109317
    17  H    0.140589
    18  H    0.159259
 Sum of Mulliken charges =  -0.00000

 Dipole moment (field-independent basis, Debye):
    X=             -7.5528    Y=             -4.2492    Z=              6.8686  Tot=             11.0579
 Quadrupole moment (field-independent basis, Debye-Ang):
   XX=            -97.7921   YY=            -95.8930   ZZ=            -78.8717
   XY=             -8.9078   XZ=             -3.7486   YZ=             -3.3107

  Exact polarizability: 207.163  10.334 191.541  -7.322  -6.005 150.400
 Approx polarizability: 168.687   6.672 157.565  -5.856  -3.806 129.522

 ******    1 imaginary frequencies (negative Signs) ******

                      1                      2                      3
                      A                      A                      A
 Frequencies --   -361.2946                54.4026                69.5118
 Red. masses --      5.8143                10.4827                 5.1568
 Frc consts  --      0.4472                 0.0183                 0.0147
 IR Inten    --    826.2849                 2.2122                 4.7591

                      4                      5                      6
                      A                      A                      A
 Frequencies --     84.1398               125.6919               160.1751
 Red. masses --      2.7174                 3.9136                 3.7708
 Frc consts  --      0.0113                 0.0364                 0.0570
 IR Inten    --      6.6514                 3.7799                 3.0241

                      7                      8                      9
                      A                      A                      A
 Frequencies --    174.5202               182.3014               208.2410
 Red. masses --      1.6708                 7.3473                 3.8395
 Frc consts  --      0.0300                 0.1439                 0.0981
 IR Inten    --      0.1031                 0.5994                 3.3764

                     10                     11                     12
                      A                      A                      A
 Frequencies --    228.3652               244.0025               249.2261
 Red. masses --      7.8193                 1.1714                 4.9420
 Frc consts  --      0.2403                 0.0411                 0.1809
 IR Inten    --      6.4801                 1.3241                10.6123

                     13                     14                     15
                      A                      A                      A
 Frequencies --    281.2677               292.2361               351.1943
 Red. masses --      3.8717                 4.8647                 4.1884
 Frc consts  --      0.1805                 0.2448                 0.3044
 IR Inten    --     16.6696                 2.8883                11.7948

                     16                     17                     18
                      A                      A                      A
 Frequencies --    412.5819               505.8359               590.8434
 Red. masses --      7.2727                 6.8168                 3.6768
 Frc consts  --      0.7294                 1.0277                 0.7563
 IR Inten    --      5.5200               117.5751                44.2166

                     19                     20                     21
                      A                      A                      A
 Frequencies --    633.6376               661.6115               718.8549
 Red. masses --      3.0387                 1.4434                 7.9466
 Frc consts  --      0.7188                 0.3722                 2.4194
 IR Inten    --     40.3411                19.3597               222.5594

                     22                     23                     24
                      A                      A                      A
 Frequencies --    846.7539               914.1031              1004.9910
 Red. masses --      4.7449                 5.1996                 1.0812
 Frc consts  --      2.0044                 2.5598                 0.6434
 IR Inten    --    112.9464                11.6361                 3.6251

                     25                     26                     27
                      A                      A                      A
 Frequencies --   1026.2425              1043.9976              1047.3329
 Red. masses --      1.3793                 1.6570                 1.3955
 Frc consts  --      0.8559                 1.0641                 0.9019
 IR Inten    --    107.6608                 4.0974               124.6245

                     28                     29                     30
                      A                      A                      A
 Frequencies --   1076.7007              1226.3218              1283.6776
 Red. masses --      5.1776                 1.4016                 4.8026
 Frc consts  --      3.5365                 1.2419                 4.6627
 IR Inten    --     53.6081                24.0281               318.9346

                     31                     32                     33
                      A                      A                      A
 Frequencies --   1339.1113              1364.4058              1397.0269
 Red. masses --      1.3544                 7.6760                 1.2609
 Frc consts  --      1.4309                 8.4193                 1.4499
 IR Inten    --     23.6767              1256.2912                53.6034

                     34                     35                     36
                      A                      A                      A
 Frequencies --   1462.0831              1464.7005              1492.2537
 Red. masses --      1.1848                 1.0726                 1.0451
 Frc consts  --      1.4923                 1.3558                 1.3711
 IR Inten    --     13.5462                 5.4795                25.9061

                     37                     38                     39
                      A                      A                      A
 Frequencies --   1494.3775              1501.1211              1641.2416
 Red. masses --      1.0673                 1.0325                 1.0905
 Frc consts  --      1.4043                 1.3708                 1.7307
 IR Inten    --     11.3282                25.0501                78.4838

                     40                     41                     42
                      A                      A                      A
 Frequencies --   1675.3980              3073.9725              3080.7105
 Red. masses --     10.6313                 1.0327                 1.0372
 Frc consts  --     17.5822                 5.7493                 5.7999
 IR Inten    --    602.2065                19.8366                 6.5182

                     43                     44                     45
                      A                      A                      A
 Frequencies --   3153.9691              3158.0096              3173.4570
 Red. masses --      1.1052                 1.0996                 1.1061
 Frc consts  --      6.4776                 6.4613                 6.5634
 IR Inten    --      7.4848                10.3485                 8.5061

                     46                     47                     48
                      A                      A                      A
 Frequencies --   3179.5853              3518.0397              3601.8174
 Red. masses --      1.1028                 1.0505                 1.0967
 Frc consts  --      6.5687                 7.6601                 8.3828
 IR Inten    --     31.3257                75.4283                66.4702

 - Thermochemistry -
 -------------------
 Temperature   298.150 Kelvin.  Pressure   1.00000 Atm.
 Atom     1 has atomic number  6 and mass  12.00000

 Molecular mass:   290.86611 amu.
 Principal axes and moments of inertia in atomic units:
                           1         2         3
     Eigenvalues --  2388.614094054.645214843.39866
           X            0.99985   0.01213  -0.01223
           Y           -0.01245   0.99957  -0.02653
           Z            0.01190   0.02668   0.99957
 This molecule is an asymmetric top.
 Rotational symmetry number  1.
 Warning -- assumption of classical behavior for rotation
           may cause significant error
 Rotational temperatures (Kelvin)      0.03626     0.02136     0.01788
 Rotational constants (GHZ):           0.75556     0.44510     0.37262
    1 imaginary frequencies ignored.
 Zero-point vibrational energy     337765.9 (Joules/Mol)
                                   80.72798 (Kcal/Mol)
 Warning -- explicit consideration of  17 degrees of freedom as
           vibrations may cause significant error
 Vibrational temperatures:     78.27   100.01   121.06   180.84   230.46
          (Kelvin)            251.10   262.29   299.61   328.57   351.07
                              358.58   404.68   420.46   505.29   593.61
                              727.79   850.09   911.66   951.91  1034.27
                             1218.29  1315.19  1445.96  1476.53  1502.08
                             1506.88  1549.13  1764.40  1846.93  1926.68
                             1963.08  2010.01  2103.61  2107.38  2147.02
                             2150.08  2159.78  2361.38  2410.52  4422.76
                             4432.46  4537.86  4543.67  4565.90  4574.71
                             5061.67  5182.21

 Zero-point correction=                           0.128648 (Hartree/Particle)
 Thermal correction to Energy=                    0.141071
 Thermal correction to Enthalpy=                  0.142015
 Thermal correction to Gibbs Free Energy=         0.088061
 Sum of electronic and zero-point Energies=          -5933.795765
 Sum of electronic and thermal Energies=             -5933.783343
 Sum of electronic and thermal Enthalpies=           -5933.782399
 Sum of electronic and thermal Free Energies=        -5933.836352

                     E (Thermal)             CV                S
                      KCal/Mol        Cal/Mol-Kelvin    Cal/Mol-Kelvin
 Total                   88.523             41.869            113.555
 Electronic               0.000              0.000              0.000
 Translational            0.889              2.981             42.901
 Rotational               0.889              2.981             32.217
 Vibrational             86.746             35.908             38.437
 Vibration     1          0.596              1.976              4.651
 Vibration     2          0.598              1.969              4.167
 Vibration     3          0.601              1.960              3.792
 Vibration     4          0.611              1.927              3.011
 Vibration     5          0.622              1.891              2.548
 Vibration     6          0.627              1.874              2.386
 Vibration     7          0.630              1.864              2.305
 Vibration     8          0.642              1.828              2.059
 Vibration     9          0.651              1.798              1.892
 Vibration    10          0.659              1.773              1.774
 Vibration    11          0.662              1.764              1.736
 Vibration    12          0.681              1.708              1.526
 Vibration    13          0.688              1.688              1.461
 Vibration    14          0.728              1.573              1.161
 Vibration    15          0.776              1.443              0.918
 Vibration    16          0.861              1.237              0.644
 Vibration    17          0.948              1.051              0.466

 Optimization completed.
    -- Stationary point found.
 Normal termination of Gaussian 16 at Tue Apr 13 01:36:36 2021.
