 Gaussian 16, Revision A.03,
 Gaussian 16:  ES64L-G16RevA.03 25-Dec-2016

 ----------------------------------------------------------------------
 # wB97XD def2tzvp, opt=(ts, noeigen, calcfc, maxcycles=70, maxstep=1),
  freq=noraman, scrf=(iefpcm, solvent=water)
 ----------------------------------------------------------------------

 ------------------------
 0_iteration/TS-915-0.out
 ------------------------
 Symbolic Z-matrix:
 Charge =  0 Multiplicity = 1

 SCF Done:  E(RwB97XD) =  -1301.71115108     A.U. after   15 cycles
 SCF Done:  E(RwB97XD) =  -1301.71111716     A.U. after   10 cycles
 SCF Done:  E(RwB97XD) =  -1301.71108834     A.U. after   10 cycles
 SCF Done:  E(RwB97XD) =  -1301.71106434     A.U. after   10 cycles
 SCF Done:  E(RwB97XD) =  -1301.71104506     A.U. after   10 cycles
 SCF Done:  E(RwB97XD) =  -1301.71103043     A.U. after   10 cycles
 SCF Done:  E(RwB97XD) =  -1301.71102044     A.U. after   10 cycles
 SCF Done:  E(RwB97XD) =  -1301.71101540     A.U. after   10 cycles
 SCF Done:  E(RwB97XD) =  -1301.71101710     A.U. after   11 cycles
 SCF Done:  E(RwB97XD) =  -1301.71103136     A.U. after   11 cycles
 SCF Done:  E(RwB97XD) =  -1301.71104996     A.U. after   10 cycles
 SCF Done:  E(RwB97XD) =  -1301.71106577     A.U. after   10 cycles
 SCF Done:  E(RwB97XD) =  -1301.71107715     A.U. after   10 cycles
 SCF Done:  E(RwB97XD) =  -1301.71108382     A.U. after   10 cycles
 SCF Done:  E(RwB97XD) =  -1301.71108579     A.U. after   10 cycles
 SCF Done:  E(RwB97XD) =  -1301.71108594     A.U. after    8 cycles
 Optimization completed.
    -- Stationary point found.
 Normal termination of Gaussian 16 at Sat Feb 27 19:45:28 2021.

 ---------------------------------------------------------------------
 #N Geom=AllCheck Guess=TCheck SCRF=Check GenChk RwB97XD/def2TZVP Freq
 ---------------------------------------------------------------------

 Structure from the checkpoint file:  "/beegfs/scratch/user/q/tla25/Gau-3093.chk"
 ------------------------
 0_iteration/TS-915-0.out
 ------------------------
 Charge =  0 Multiplicity = 1

                         Standard orientation:
 ---------------------------------------------------------------------
 Center     Atomic      Atomic             Coordinates (Angstroms)
 Number     Number       Type             X           Y           Z
 ---------------------------------------------------------------------
      1          6           0        0.540994   -0.291268   -0.200708
      2          6           0        1.783891    0.415537   -0.436249
      3          8           0        1.848282    1.514611   -1.000820
      4          6           0       -0.730768    0.216316   -0.447139
      5          6           0       -0.640205    1.651886    1.956208
      6          1           0       -0.905434    1.697196    3.011662
      7          1           0        0.386610    1.294755    1.861009
      8          1           0       -0.714094    2.646616    1.523665
      9          7           0       -1.509232    0.736639    1.226840
     10          1           0       -1.618025   -0.141224    1.722159
     11          1           0       -2.434053    1.120795    1.069332
     12         17           0       -2.002107   -0.990986   -0.853159
     13          6           0       -0.944162    1.473321   -1.243598
     14          1           0       -0.357586    2.289376   -0.833969
     15          1           0       -0.613926    1.310822   -2.268570
     16          1           0       -2.001509    1.731312   -1.252415
     17         17           0        0.631286   -1.825323    0.666652
     18          7           0        2.934080   -0.176860    0.000419
     19          1           0        2.949868   -1.132231    0.305982
     20          1           0        3.793407    0.229744   -0.323584
 ---------------------------------------------------------------------

 SCF Done:  E(RwB97XD) =  -1301.71108594     A.U. after    1 cycles

 The electronic state is 1-A.
 Alpha  occ. eigenvalues -- -101.69674-101.69331 -19.19924 -14.49160 -14.43717
 Alpha  occ. eigenvalues --  -10.40855 -10.38642 -10.31926 -10.31313 -10.28733
 Alpha  occ. eigenvalues --   -9.58281  -9.57872  -7.32906  -7.32487  -7.32075
 Alpha  occ. eigenvalues --   -7.32031  -7.31676  -7.31646  -1.12786  -1.05050
 Alpha  occ. eigenvalues --   -0.99945  -0.98223  -0.93913  -0.86338  -0.79605
 Alpha  occ. eigenvalues --   -0.79213  -0.71894  -0.64323  -0.63707  -0.60648
 Alpha  occ. eigenvalues --   -0.58543  -0.56855  -0.55940  -0.54141  -0.51180
 Alpha  occ. eigenvalues --   -0.50412  -0.49829  -0.48433  -0.47298  -0.46757
 Alpha  occ. eigenvalues --   -0.45209  -0.42283  -0.41254  -0.39246  -0.38646
 Alpha  occ. eigenvalues --   -0.35113  -0.33604  -0.27804
 Alpha virt. eigenvalues --    0.04869   0.07661   0.10330   0.12807   0.13491
 Alpha virt. eigenvalues --    0.14595   0.15204   0.15654   0.17445   0.18284
 Alpha virt. eigenvalues --    0.19363   0.20061   0.20687   0.21828   0.22269

 Mulliken charges:
               1
     1  C   -0.197398
     2  C    0.317335
     3  O   -0.536158
     4  C    0.139729
     5  C   -0.305173
     6  H    0.162227
     7  H    0.157786
     8  H    0.162800
     9  N   -0.325831
    10  H    0.285317
    11  H    0.293674
    12  Cl  -0.125440
    13  C   -0.351730
    14  H    0.151726
    15  H    0.149492
    16  H    0.144935
    17  Cl  -0.177657
    18  N   -0.475078
    19  H    0.262214
    20  H    0.267231
 Sum of Mulliken charges =  -0.00000

 Dipole moment (field-independent basis, Debye):
    X=             -3.9800    Y=              1.3986    Z=              4.9992  Tot=              6.5413
 Quadrupole moment (field-independent basis, Debye-Ang):
   XX=            -64.0904   YY=            -77.3767   ZZ=            -70.9298
   XY=            -12.9863   XZ=             -3.1390   YZ=              5.2386

  Exact polarizability: 174.803  -2.172 145.638  -2.948  -4.447 128.111
 Approx polarizability: 136.835   0.188 126.273  -1.704  -6.072 110.384

 ******    1 imaginary frequencies (negative Signs) ******

                      1                      2                      3
                      A                      A                      A
 Frequencies --   -367.2403                64.2645                66.2090
 Red. masses --      5.4127                 5.6140                 4.9849
 Frc consts  --      0.4301                 0.0137                 0.0129
 IR Inten    --    681.9943                13.4327                 7.6820

                      4                      5                      6
                      A                      A                      A
 Frequencies --     83.6464               135.7635               183.2575
 Red. masses --      2.3182                 2.7808                 1.2306
 Frc consts  --      0.0096                 0.0302                 0.0243
 IR Inten    --      6.7005                14.1419                 3.5917

                      7                      8                      9
                      A                      A                      A
 Frequencies --    199.6800               201.9409               253.1022
 Red. masses --      4.8971                10.5175                 3.2610
 Frc consts  --      0.1150                 0.2527                 0.1231
 IR Inten    --      2.0677                10.8372                10.5410

                     10                     11                     12
                      A                      A                      A
 Frequencies --    259.1570               290.1467               313.7383
 Red. masses --      1.3166                 1.7432                 3.2344
 Frc consts  --      0.0521                 0.0865                 0.1876
 IR Inten    --    363.8060                 8.7573                54.0471

                     13                     14                     15
                      A                      A                      A
 Frequencies --    327.3219               358.4022               368.6285
 Red. masses --      2.2399                 7.8186                 2.7095
 Frc consts  --      0.1414                 0.5917                 0.2169
 IR Inten    --      8.3968                16.1145                 2.4862

                     16                     17                     18
                      A                      A                      A
 Frequencies --    454.5265               475.4322               515.0714
 Red. masses --      7.5000                 3.6898                 1.6437
 Frc consts  --      0.9129                 0.4914                 0.2569
 IR Inten    --     24.8562                17.5765                50.3812

                     19                     20                     21
                      A                      A                      A
 Frequencies --    543.3655               609.3434               687.0511
 Red. masses --      1.8933                 3.3790                 1.4836
 Frc consts  --      0.3293                 0.7392                 0.4126
 IR Inten    --     51.4383               104.4650                32.6041

                     22                     23                     24
                      A                      A                      A
 Frequencies --    765.7085               782.4596               986.6583
 Red. masses --      4.7275                 5.1408                 4.4724
 Frc consts  --      1.6331                 1.8544                 2.5652
 IR Inten    --     65.6422                77.3942                88.5026

                     25                     26                     27
                      A                      A                      A
 Frequencies --   1007.5898              1043.0707              1066.3710
 Red. masses --      1.1055                 1.1572                 1.5667
 Frc consts  --      0.6612                 0.7418                 1.0497
 IR Inten    --     14.6937                30.4510               147.2656

                     28                     29                     30
                      A                      A                      A
 Frequencies --   1071.0953              1084.5213              1104.3564
 Red. masses --      1.8150                 3.7901                 1.7373
 Frc consts  --      1.2268                 2.6265                 1.2483
 IR Inten    --     29.0713                 4.2851                40.2039

                     31                     32                     33
                      A                      A                      A
 Frequencies --   1145.8050              1223.5627              1340.7973
 Red. masses --      3.8769                 1.3913                 1.3291
 Frc consts  --      2.9988                 1.2272                 1.4077
 IR Inten    --     60.4926                34.1277                 0.1611

                     34                     35                     36
                      A                      A                      A
 Frequencies --   1377.5105              1414.9354              1436.5109
 Red. masses --      4.0813                 1.6139                 2.0568
 Frc consts  --      4.5628                 1.9037                 2.5007
 IR Inten    --    377.2131               575.4243               506.3403

                     37                     38                     39
                      A                      A                      A
 Frequencies --   1461.6038              1468.1586              1490.9518
 Red. masses --      1.2075                 1.0786                 1.1537
 Frc consts  --      1.5199                 1.3698                 1.5111
 IR Inten    --     84.8703                 5.6661                43.1607

                     40                     41                     42
                      A                      A                      A
 Frequencies --   1495.4093              1504.1017              1613.6144
 Red. masses --      1.0903                 1.0330                 1.4131
 Frc consts  --      1.4365                 1.3769                 2.1679
 IR Inten    --     69.2890                17.8461               330.6112

                     43                     44                     45
                      A                      A                      A
 Frequencies --   1642.8563              1661.6862              3067.9983
 Red. masses --      1.0894                 4.3139                 1.0345
 Frc consts  --      1.7324                 7.0181                 5.7369
 IR Inten    --     56.5254               563.2302                29.6620

                     46                     47                     48
                      A                      A                      A
 Frequencies --   3085.7367              3143.2416              3161.2482
 Red. masses --      1.0368                 1.1037                 1.1033
 Frc consts  --      5.8166                 6.4245                 6.4963
 IR Inten    --     14.8413                 8.5466                13.9539

                     49                     50                     51
                      A                      A                      A
 Frequencies --   3175.0022              3195.1200              3523.8362
 Red. masses --      1.1050                 1.1012                 1.0508
 Frc consts  --      6.5631                 6.6236                 7.6878
 IR Inten    --     12.0546                 2.7149                58.0458

                     52                     53                     54
                      A                      A                      A
 Frequencies --   3605.7776              3627.4192              3752.5969
 Red. masses --      1.0967                 1.0455                 1.1043
 Frc consts  --      8.4012                 8.1050                 9.1622
 IR Inten    --     58.2105                78.0058                85.7688

 - Thermochemistry -
 -------------------
 Temperature   298.150 Kelvin.  Pressure   1.00000 Atm.
 Atom     1 has atomic number  6 and mass  12.00000

 Molecular mass:   184.01702 amu.
 Principal axes and moments of inertia in atomic units:
                           1         2         3
     Eigenvalues --  1623.231062277.929082659.19941
           X            0.99703  -0.07265  -0.02563
           Y            0.07400   0.99566   0.05636
           Z            0.02142  -0.05809   0.99808
 This molecule is an asymmetric top.
 Rotational symmetry number  1.
 Warning -- assumption of classical behavior for rotation
           may cause significant error
 Rotational temperatures (Kelvin)      0.05336     0.03802     0.03257
 Rotational constants (GHZ):           1.11182     0.79227     0.67868
    1 imaginary frequencies ignored.
 Zero-point vibrational energy     412217.4 (Joules/Mol)
                                   98.52231 (Kcal/Mol)
 Warning -- explicit consideration of  19 degrees of freedom as
           vibrations may cause significant error
 Vibrational temperatures:     92.46    95.26   120.35   195.33   263.67
          (Kelvin)            287.30   290.55   364.16   372.87   417.46
                              451.40   470.94   515.66   530.37   653.96
                              684.04   741.07   781.78   876.71   988.51
                             1101.68  1125.78  1419.58  1449.70  1500.75
                             1534.27  1541.07  1560.38  1588.92  1648.56
                             1760.43  1929.11  1981.93  2035.78  2066.82
                             2102.92  2112.35  2145.15  2151.56  2164.07
                             2321.63  2363.70  2390.80  4414.17  4439.69
                             4522.42  4548.33  4568.12  4597.07  5070.01
                             5187.91  5219.05  5399.15

 Zero-point correction=                           0.157005 (Hartree/Particle)
 Thermal correction to Energy=                    0.169128
 Thermal correction to Enthalpy=                  0.170072
 Thermal correction to Gibbs Free Energy=         0.118586
 Sum of electronic and zero-point Energies=          -1301.554081
 Sum of electronic and thermal Energies=             -1301.541958
 Sum of electronic and thermal Enthalpies=           -1301.541014
 Sum of electronic and thermal Free Energies=        -1301.592499

                     E (Thermal)             CV                S
                      KCal/Mol        Cal/Mol-Kelvin    Cal/Mol-Kelvin
 Total                  106.129             42.847            108.361
 Electronic               0.000              0.000              0.000
 Translational            0.889              2.981             41.536
 Rotational               0.889              2.981             30.665
 Vibrational            104.352             36.885             36.160
 Vibration     1          0.597              1.971              4.322
 Vibration     2          0.598              1.970              4.263
 Vibration     3          0.601              1.960              3.803
 Vibration     4          0.614              1.918              2.863
 Vibration     5          0.631              1.863              2.295
 Vibration     6          0.638              1.840              2.136
 Vibration     7          0.639              1.837              2.115
 Vibration     8          0.664              1.758              1.709
 Vibration     9          0.668              1.747              1.667
 Vibration    10          0.686              1.692              1.473
 Vibration    11          0.702              1.647              1.343
 Vibration    12          0.711              1.621              1.273
 Vibration    13          0.733              1.558              1.129
 Vibration    14          0.741              1.537              1.085
 Vibration    15          0.813              1.351              0.782
 Vibration    16          0.832              1.305              0.722
 Vibration    17          0.870              1.217              0.621
 Vibration    18          0.898              1.154              0.558
 Vibration    19          0.968              1.012              0.434

 Optimization completed.
    -- Stationary point found.
 Normal termination of Gaussian 16 at Sat Feb 27 20:00:00 2021.
