 Gaussian 16, Revision A.03,
 Gaussian 16:  ES64L-G16RevA.03 25-Dec-2016

 ----------------------------------------------------------------------
 # wB97XD def2tzvp, opt=(ts, noeigen, calcfc, maxcycles=70, maxstep=8),
  freq=noraman, scrf=(iefpcm, solvent=water)
 ----------------------------------------------------------------------

 ------------------------
 1_iteration/TS-968-1.out
 ------------------------
 Symbolic Z-matrix:
 Charge =  0 Multiplicity = 1

 SCF Done:  E(RwB97XD) =  -1669.09786347     A.U. after   15 cycles
 Optimization completed.
    -- Stationary point found.
 Normal termination of Gaussian 16 at Sun Mar 28 22:42:27 2021.

 ---------------------------------------------------------------------
 #N Geom=AllCheck Guess=TCheck SCRF=Check GenChk RwB97XD/def2TZVP Freq
 ---------------------------------------------------------------------

 Structure from the checkpoint file:  "/beegfs/scratch/user/q/tla25/Gau-22152.chk"
 ------------------------
 1_iteration/TS-968-1.out
 ------------------------
 Charge =  0 Multiplicity = 1

                         Standard orientation:
 ---------------------------------------------------------------------
 Center     Atomic      Atomic             Coordinates (Angstroms)
 Number     Number       Type             X           Y           Z
 ---------------------------------------------------------------------
      1          6           0       -0.493829   -0.171980   -0.174871
      2          6           0        0.442471   -1.272160   -0.159551
      3          8           0        0.061711   -2.442280   -0.221361
      4          6           0       -0.152610    1.160090   -0.403471
      5          6           0       -0.162150    1.745980    2.362679
      6          1           0       -0.216550    0.661580    2.450669
      7          1           0        0.326640    2.150670    3.248239
      8          1           0       -1.171480    2.145750    2.289039
      9          7           0        0.574850    2.072710    1.152869
     10          1           0        1.540450    1.764490    1.203829
     11          1           0        0.568330    3.066520    0.951249
     12         17           0       -1.485410    2.278930   -0.688091
     13         17           0        1.199210    1.581370   -1.474321
     14          6           0       -1.930509   -0.565731   -0.026271
     15          6           0       -2.732669   -0.719291   -1.155591
     16          6           0       -4.055959   -1.116431   -1.043981
     17          6           0       -4.601349   -1.376031    0.205989
     18          6           0       -3.810639   -1.241531    1.337369
     19          6           0       -2.486509   -0.842611    1.218779
     20          1           0       -2.310039   -0.520281   -2.133161
     21          1           0       -4.662119   -1.225991   -1.934761
     22          1           0       -5.634989   -1.685531    0.296489
     23          1           0       -4.223779   -1.447831    2.316949
     24          1           0       -1.877109   -0.752561    2.108919
     25          6           0        1.924261   -1.057950   -0.008481
     26          6           0        2.451651   -0.594770    1.190579
     27          6           0        3.824991   -0.467130    1.352619
     28          6           0        4.678901   -0.801480    0.313249
     29          6           0        4.156551   -1.287790   -0.879101
     30          6           0        2.787651   -1.427280   -1.034531
     31          1           0        1.791401   -0.363670    2.018229
     32          1           0        4.224491   -0.111040    2.293639
     33          1           0        5.749321   -0.694500    0.433629
     34          1           0        4.820521   -1.560010   -1.689841
     35          1           0        2.381161   -1.806840   -1.963821
 ---------------------------------------------------------------------

 SCF Done:  E(RwB97XD) =  -1669.09786347     A.U. after    1 cycles

 The electronic state is 1-A.
 Alpha  occ. eigenvalues -- -101.71445-101.71162 -19.22096 -14.49591 -10.45872
 Alpha  occ. eigenvalues --  -10.37020 -10.32319 -10.30310 -10.30104 -10.29798
 Alpha  occ. eigenvalues --  -10.29577 -10.29488 -10.29427 -10.29348 -10.28814
 Alpha  occ. eigenvalues --  -10.28776 -10.28724 -10.28654 -10.28578 -10.28523
 Alpha  occ. eigenvalues --   -9.60036  -9.59761  -7.34712  -7.34433  -7.33804
 Alpha  occ. eigenvalues --   -7.33759  -7.33524  -7.33491  -1.12983  -1.06071
 Alpha  occ. eigenvalues --   -1.01092  -0.97171  -0.96464  -0.93757  -0.89178
 Alpha  occ. eigenvalues --   -0.86614  -0.85699  -0.84837  -0.82414  -0.79742
 Alpha  occ. eigenvalues --   -0.73828  -0.71398  -0.71066  -0.70161  -0.68389
 Alpha  occ. eigenvalues --   -0.64630  -0.64122  -0.61494  -0.59982  -0.58705
 Alpha  occ. eigenvalues --   -0.57631  -0.56483  -0.55891  -0.55289  -0.54064
 Alpha  occ. eigenvalues --   -0.53898  -0.53029  -0.51554  -0.51049  -0.50709
 Alpha  occ. eigenvalues --   -0.50050  -0.48858  -0.48718  -0.47525  -0.46295
 Alpha  occ. eigenvalues --   -0.45962  -0.44712  -0.43783  -0.43079  -0.42650
 Alpha  occ. eigenvalues --   -0.42214  -0.41914  -0.39907  -0.39103  -0.34701
 Alpha  occ. eigenvalues --   -0.34405  -0.33528  -0.33397  -0.32059  -0.29357
 Alpha virt. eigenvalues --    0.01561   0.03270   0.04599   0.05433   0.05895
 Alpha virt. eigenvalues --    0.06895   0.09137   0.10591   0.12611   0.13489
 Alpha virt. eigenvalues --    0.14029   0.14619   0.15147   0.15748   0.16620

 Mulliken charges:
               1
     1  C   -0.325977
     2  C    0.274911
     3  O   -0.467701
     4  C    0.206742
     5  C   -0.304365
     6  H    0.137055
     7  H    0.174948
     8  H    0.167455
     9  N   -0.326607
    10  H    0.285031
    11  H    0.293770
    12  Cl  -0.047224
    13  Cl  -0.056922
    14  C    0.260765
    15  C   -0.261694
    16  C   -0.141601
    17  C   -0.138159
    18  C   -0.164556
    19  C   -0.225084
    20  H    0.140732
    21  H    0.139901
    22  H    0.142576
    23  H    0.138985
    24  H    0.147599
    25  C    0.164294
    26  C   -0.343767
    27  C   -0.128454
    28  C   -0.147507
    29  C   -0.138163
    30  C   -0.231201
    31  H    0.194354
    32  H    0.145568
    33  H    0.146668
    34  H    0.145327
    35  H    0.142302
 Sum of Mulliken charges =  -0.00000

 Dipole moment (field-independent basis, Debye):
    X=              2.9781    Y=              8.3250    Z=              4.7440  Tot=             10.0340
 Quadrupole moment (field-independent basis, Debye-Ang):
   XX=           -114.9391   YY=           -138.3683   ZZ=           -115.0532
   XY=              4.1388   XZ=              1.5873   YZ=              9.8531

  Exact polarizability: 360.951  17.351 280.604  -1.266  19.082 298.081
 Approx polarizability: 280.659  14.854 234.972  -0.944  14.519 259.248

 ******    1 imaginary frequencies (negative Signs) ******

                      1                      2                      3
                      A                      A                      A
 Frequencies --   -356.9164                27.2500                42.7288
 Red. masses --      5.7987                 4.7822                 4.7498
 Frc consts  --      0.4352                 0.0021                 0.0051
 IR Inten    --    844.5674                 1.4820                 1.6809

                      4                      5                      6
                      A                      A                      A
 Frequencies --     50.5720                60.0995                74.6067
 Red. masses --      5.2407                 5.2404                 4.4141
 Frc consts  --      0.0079                 0.0112                 0.0145
 IR Inten    --      4.5474                 3.3979                 1.7282

                      7                      8                      9
                      A                      A                      A
 Frequencies --     80.5355                96.4335               136.0770
 Red. masses --      6.3716                 3.2731                 4.5506
 Frc consts  --      0.0243                 0.0179                 0.0496
 IR Inten    --      2.4507                 0.7483                 2.5982

                     10                     11                     12
                      A                      A                      A
 Frequencies --    154.6983               174.1009               197.3844
 Red. masses --      3.5544                 4.4497                 4.4637
 Frc consts  --      0.0501                 0.0795                 0.1025
 IR Inten    --      3.3708                 3.3653                 3.7303

                     13                     14                     15
                      A                      A                      A
 Frequencies --    200.7888               237.7839               245.8833
 Red. masses --      1.4767                 4.6937                 6.3717
 Frc consts  --      0.0351                 0.1564                 0.2270
 IR Inten    --     10.5405                 3.0250                 6.8065

                     16                     17                     18
                      A                      A                      A
 Frequencies --    252.7825               261.1426               295.5450
 Red. masses --      5.2578                 4.5041                 4.1292
 Frc consts  --      0.1979                 0.1810                 0.2125
 IR Inten    --      4.6049                 1.6830                40.9175

                     19                     20                     21
                      A                      A                      A
 Frequencies --    334.1846               362.3200               381.6930
 Red. masses --      9.1474                 7.5492                 5.4619
 Frc consts  --      0.6019                 0.5839                 0.4688
 IR Inten    --     24.2166                 8.8254                19.2710

                     22                     23                     24
                      A                      A                      A
 Frequencies --    421.6617               423.9540               451.6021
 Red. masses --      2.9710                 2.8563                 7.6368
 Frc consts  --      0.3112                 0.3025                 0.9176
 IR Inten    --      2.4138                 0.0319                23.0328

                     25                     26                     27
                      A                      A                      A
 Frequencies --    522.7116               554.0313               564.4531
 Red. masses --      3.8038                 5.2627                 6.4680
 Frc consts  --      0.6123                 0.9518                 1.2142
 IR Inten    --      7.6996                24.0917                94.9753

                     28                     29                     30
                      A                      A                      A
 Frequencies --    630.1384               635.3103               640.9198
 Red. masses --      5.3335                 6.3097                 6.3573
 Frc consts  --      1.2478                 1.5005                 1.5386
 IR Inten    --     90.5682                 1.4570                16.1277

                     31                     32                     33
                      A                      A                      A
 Frequencies --    654.4700               692.5155               725.6516
 Red. masses --      1.5758                 4.1273                 1.5951
 Frc consts  --      0.3977                 1.1662                 0.4949
 IR Inten    --      0.4137                72.9651                81.9319

                     34                     35                     36
                      A                      A                      A
 Frequencies --    732.9768               768.5714               781.1937
 Red. masses --      1.6280                 2.5427                 3.3308
 Frc consts  --      0.5153                 0.8849                 1.1976
 IR Inten    --     97.3938                50.4801                75.0415

                     37                     38                     39
                      A                      A                      A
 Frequencies --    800.8341               817.3850               854.9324
 Red. masses --      6.3814                 3.6357                 3.9110
 Frc consts  --      2.4113                 1.4312                 1.6842
 IR Inten    --    126.6528                81.7002               179.7334

                     40                     41                     42
                      A                      A                      A
 Frequencies --    875.7651               886.1395               906.5104
 Red. masses --      1.2524                 1.2792                 4.0047
 Frc consts  --      0.5659                 0.5918                 1.9389
 IR Inten    --      0.8380                 1.6895                26.3880

                     43                     44                     45
                      A                      A                      A
 Frequencies --    958.4274               968.3453              1004.1019
 Red. masses --      1.5097                 1.5098                 1.1490
 Frc consts  --      0.8171                 0.8341                 0.6825
 IR Inten    --     20.9557                 9.5702                22.9745

                     46                     47                     48
                      A                      A                      A
 Frequencies --   1010.3497              1017.7133              1026.4380
 Red. masses --      1.3766                 1.4734                 3.7005
 Frc consts  --      0.8280                 0.8991                 2.2971
 IR Inten    --      1.1844                 8.0498                 8.6529

                     49                     50                     51
                      A                      A                      A
 Frequencies --   1027.1667              1027.8758              1032.7380
 Red. masses --      2.4478                 1.9180                 1.2827
 Frc consts  --      1.5216                 1.1939                 0.8060
 IR Inten    --      1.0810                 1.2749                11.2812

                     52                     53                     54
                      A                      A                      A
 Frequencies --   1039.3750              1057.7019              1062.4005
 Red. masses --      1.1909                 2.4925                 2.1424
 Frc consts  --      0.7580                 1.6429                 1.4247
 IR Inten    --     60.1813                 6.3902                14.6070

                     55                     56                     57
                      A                      A                      A
 Frequencies --   1089.5813              1110.9117              1111.8255
 Red. masses --      4.9486                 1.5558                 1.5625
 Frc consts  --      3.4614                 1.1313                 1.1380
 IR Inten    --     44.1035                23.4132                10.1675

                     58                     59                     60
                      A                      A                      A
 Frequencies --   1131.0370              1182.3505              1184.6006
 Red. masses --      3.2338                 1.1338                 1.1396
 Frc consts  --      2.4373                 0.9339                 0.9422
 IR Inten    --     43.4357                 0.1021                 0.2681

                     61                     62                     63
                      A                      A                      A
 Frequencies --   1206.8110              1208.6313              1218.5263
 Red. masses --      1.1232                 1.1220                 1.4039
 Frc consts  --      0.9638                 0.9657                 1.2282
 IR Inten    --      2.6651                 0.2011                24.3939

                     64                     65                     66
                      A                      A                      A
 Frequencies --   1243.7429              1309.5480              1320.0593
 Red. masses --      4.0801                 4.5376                 4.1276
 Frc consts  --      3.7186                 4.5848                 4.2378
 IR Inten    --    111.9620                 0.6803                83.7872

                     67                     68                     69
                      A                      A                      A
 Frequencies --   1342.5185              1346.7718              1357.8202
 Red. masses --      1.5871                 3.6743                 1.4396
 Frc consts  --      1.6854                 3.9266                 1.5638
 IR Inten    --    235.4018               969.2420                 3.9779

                     70                     71                     72
                      A                      A                      A
 Frequencies --   1359.4401              1410.9098              1456.7033
 Red. masses --      1.5281                 5.3868                 1.2477
 Frc consts  --      1.6639                 6.3180                 1.5599
 IR Inten    --    104.0550               405.5008                24.2509

                     73                     74                     75
                      A                      A                      A
 Frequencies --   1487.5290              1488.8320              1494.0784
 Red. masses --      2.1834                 2.1885                 1.0394
 Frc consts  --      2.8465                 2.8581                 1.3671
 IR Inten    --      4.5416                15.4552                10.5616

                     76                     77                     78
                      A                      A                      A
 Frequencies --   1500.0233              1541.6696              1544.7975
 Red. masses --      1.0500                 2.3320                 2.4244
 Frc consts  --      1.3920                 3.2656                 3.4088
 IR Inten    --     46.9530                 4.6664                44.2410

                     79                     80                     81
                      A                      A                      A
 Frequencies --   1639.9219              1643.3707              1647.6056
 Red. masses --      1.1367                 7.2095                 5.8147
 Frc consts  --      1.8011                11.4717                 9.3001
 IR Inten    --    130.5644               397.9286                10.7248

                     82                     83                     84
                      A                      A                      A
 Frequencies --   1651.8714              1673.5671              1675.0461
 Red. masses --      6.5435                 6.0926                 5.8778
 Frc consts  --     10.5199                10.0541                 9.7166
 IR Inten    --    126.9926                55.6446                 0.5655

                     85                     86                     87
                      A                      A                      A
 Frequencies --   3075.0142              3154.4001              3171.3801
 Red. masses --      1.0328                 1.1045                 1.1056
 Frc consts  --      5.7537                 6.4750                 6.5513
 IR Inten    --     24.6488                 8.8752                10.4913

                     88                     89                     90
                      A                      A                      A
 Frequencies --   3189.8069              3191.8668              3195.8243
 Red. masses --      1.0860                 1.0872                 1.0879
 Frc consts  --      6.5104                 6.5260                 6.5467
 IR Inten    --      4.3428                 5.2952                 0.1636

                     91                     92                     93
                      A                      A                      A
 Frequencies --   3197.2574              3204.9166              3205.7685
 Red. masses --      1.0874                 1.0922                 1.0911
 Frc consts  --      6.5496                 6.6098                 6.6064
 IR Inten    --      0.5425                22.0019                 6.9880

                     94                     95                     96
                      A                      A                      A
 Frequencies --   3212.3499              3213.9428              3221.0225
 Red. masses --      1.0944                 1.0951                 1.0985
 Frc consts  --      6.6541                 6.6647                 6.7148
 IR Inten    --     48.1056                32.3769                16.6419

                     97                     98                     99
                      A                      A                      A
 Frequencies --   3223.9187              3514.3140              3599.7104
 Red. masses --      1.0989                 1.0506                 1.0966
 Frc consts  --      6.7293                 7.6452                 8.3718
 IR Inten    --     17.5507                68.4631               100.0940

 - Thermochemistry -
 -------------------
 Temperature   298.150 Kelvin.  Pressure   1.00000 Atm.
 Atom     1 has atomic number  6 and mass  12.00000

 Molecular mass:   307.05307 amu.
 Principal axes and moments of inertia in atomic units:
                           1         2         3
     Eigenvalues --  3754.251308447.864879565.57830
           X            0.99997   0.00808   0.00208
           Y           -0.00822   0.99677   0.07990
           Z           -0.00143  -0.07992   0.99680
 This molecule is an asymmetric top.
 Rotational symmetry number  1.
 Warning -- assumption of classical behavior for rotation
           may cause significant error
 Rotational temperatures (Kelvin)      0.02307     0.01025     0.00905
 Rotational constants (GHZ):           0.48072     0.21363     0.18867
    1 imaginary frequencies ignored.
 Zero-point vibrational energy     720107.5 (Joules/Mol)
                                  172.10981 (Kcal/Mol)
 Warning -- explicit consideration of  26 degrees of freedom as
           vibrations may cause significant error
 Vibrational temperatures:     39.21    61.48    72.76    86.47   107.34
          (Kelvin)            115.87   138.75   195.78   222.58   250.49
                              283.99   288.89   342.12   353.77   363.70
                              375.73   425.22   480.82   521.30   549.17
                              606.68   609.98   649.75   752.07   797.13
                              812.12   906.63   914.07   922.14   941.64
                              996.38  1044.05  1054.59  1105.80  1123.96
                             1152.22  1176.03  1230.06  1260.03  1274.96
                             1304.27  1378.96  1393.23  1444.68  1453.67
                             1464.26  1476.82  1477.86  1478.88  1485.88
                             1495.43  1521.80  1528.56  1567.66  1598.35
                             1599.67  1627.31  1701.14  1704.38  1736.33
                             1738.95  1753.19  1789.47  1884.15  1899.27
                             1931.58  1937.70  1953.60  1955.93  2029.98
                             2095.87  2140.22  2142.10  2149.65  2158.20
                             2218.12  2222.62  2359.48  2364.44  2370.54
                             2376.67  2407.89  2410.02  4424.26  4538.48
                             4562.91  4589.42  4592.38  4598.08  4600.14
                             4611.16  4612.39  4621.85  4624.15  4634.33
                             4638.50  5056.31  5179.18

 Zero-point correction=                           0.274274 (Hartree/Particle)
 Thermal correction to Energy=                    0.292813
 Thermal correction to Enthalpy=                  0.293757
 Thermal correction to Gibbs Free Energy=         0.225928
 Sum of electronic and zero-point Energies=          -1668.823589
 Sum of electronic and thermal Energies=             -1668.805051
 Sum of electronic and thermal Enthalpies=           -1668.804107
 Sum of electronic and thermal Free Energies=        -1668.871935

                     E (Thermal)             CV                S
                      KCal/Mol        Cal/Mol-Kelvin    Cal/Mol-Kelvin
 Total                  183.743             69.363            142.757
 Electronic               0.000              0.000              0.000
 Translational            0.889              2.981             43.062
 Rotational               0.889              2.981             34.072
 Vibrational            181.965             63.401             65.623
 Vibration     1          0.593              1.984              6.020
 Vibration     2          0.595              1.980              5.128
 Vibration     3          0.595              1.977              4.795
 Vibration     4          0.597              1.973              4.454
 Vibration     5          0.599              1.966              4.028
 Vibration     6          0.600              1.962              3.878
 Vibration     7          0.603              1.952              3.525
 Vibration     8          0.614              1.917              2.858
 Vibration     9          0.620              1.897              2.614
 Vibration    10          0.627              1.874              2.391
 Vibration    11          0.637              1.844              2.157
 Vibration    12          0.638              1.839              2.126
 Vibration    13          0.656              1.783              1.819
 Vibration    14          0.660              1.770              1.760
 Vibration    15          0.664              1.758              1.711
 Vibration    16          0.669              1.744              1.654
 Vibration    17          0.690              1.682              1.442
 Vibration    18          0.716              1.607              1.240
 Vibration    19          0.736              1.550              1.112
 Vibration    20          0.751              1.509              1.032
 Vibration    21          0.784              1.423              0.886
 Vibration    22          0.786              1.418              0.879
 Vibration    23          0.810              1.357              0.791
 Vibration    24          0.878              1.200              0.604
 Vibration    25          0.909              1.131              0.536
 Vibration    26          0.920              1.108              0.515

 Optimization completed.
    -- Stationary point found.
 Normal termination of Gaussian 16 at Mon Mar 29 01:03:20 2021.
