 Gaussian 16, Revision A.03,
 Gaussian 16:  ES64L-G16RevA.03 25-Dec-2016

 ----------------------------------------------------------------------
 # wB97XD def2tzvp, opt=(ts, noeigen, calcfc, maxcycles=70, maxstep=8),
  freq=noraman, scrf=(iefpcm, solvent=water)
 ----------------------------------------------------------------------

 ------------------------
 1_iteration/TS-966-1.out
 ------------------------
 Symbolic Z-matrix:
 Charge =  0 Multiplicity = 1

 SCF Done:  E(RwB97XD) =  -1572.03845691     A.U. after   15 cycles
 SCF Done:  E(RwB97XD) =  -1572.04021485     A.U. after   13 cycles
 SCF Done:  E(RwB97XD) =  -1572.04068466     A.U. after   12 cycles
 SCF Done:  E(RwB97XD) =  -1572.04077120     A.U. after   12 cycles
 SCF Done:  E(RwB97XD) =  -1572.04061204     A.U. after   12 cycles
 SCF Done:  E(RwB97XD) =  -1572.04028807     A.U. after   13 cycles
 SCF Done:  E(RwB97XD) =  -1572.04027620     A.U. after   12 cycles
 SCF Done:  E(RwB97XD) =  -1572.04033816     A.U. after   12 cycles
 SCF Done:  E(RwB97XD) =  -1572.04027832     A.U. after   12 cycles
 SCF Done:  E(RwB97XD) =  -1572.04047522     A.U. after   12 cycles
 SCF Done:  E(RwB97XD) =  -1572.04044315     A.U. after   12 cycles
 SCF Done:  E(RwB97XD) =  -1572.04070842     A.U. after   13 cycles
 SCF Done:  E(RwB97XD) =  -1572.04071930     A.U. after   13 cycles
 SCF Done:  E(RwB97XD) =  -1572.04078632     A.U. after   12 cycles
 SCF Done:  E(RwB97XD) =  -1572.04077377     A.U. after   12 cycles
 SCF Done:  E(RwB97XD) =  -1572.04079656     A.U. after   11 cycles
 SCF Done:  E(RwB97XD) =  -1572.04079649     A.U. after    9 cycles
 SCF Done:  E(RwB97XD) =  -1572.04079668     A.U. after    8 cycles
 Optimization completed.
    -- Stationary point found.
 Normal termination of Gaussian 16 at Sat Jun 12 22:17:56 2021.

 ---------------------------------------------------------------------
 #N Geom=AllCheck Guess=TCheck SCRF=Check GenChk RwB97XD/def2TZVP Freq
 ---------------------------------------------------------------------

 Structure from the checkpoint file:  "/beegfs/scratch/user/q/tla25/Gau-445544.chk"
 ------------------------
 1_iteration/TS-966-1.out
 ------------------------
 Charge =  0 Multiplicity = 1

                         Standard orientation:
 ---------------------------------------------------------------------
 Center     Atomic      Atomic             Coordinates (Angstroms)
 Number     Number       Type             X           Y           Z
 ---------------------------------------------------------------------
      1          6           0       -0.100195    0.056604   -0.053813
      2          6           0       -0.795253    1.217662    0.599110
      3          8           0       -1.295334    1.085572    1.725175
      4          6           0       -0.976161   -0.998126   -0.282747
      5          6           0       -0.430900   -2.382905    2.004017
      6          1           0       -0.765751   -2.657298    3.003179
      7          1           0       -0.073169   -3.268559    1.484579
      8          1           0        0.370557   -1.650459    2.081247
      9          7           0       -1.526465   -1.778985    1.249498
     10          1           0       -2.294425   -2.423109    1.088790
     11          1           0       -1.863090   -0.943427    1.731459
     12         17           0       -0.487570   -2.385929   -1.254003
     13         17           0       -2.646102   -0.507345   -0.840123
     14          6           0        1.365746    0.042289   -0.049750
     15          6           0        2.159990   -1.119630   -0.088900
     16          6           0        3.544050   -1.063775   -0.090358
     17          6           0        4.214524    0.148520   -0.027089
     18          6           0        3.457932    1.307929    0.052415
     19          6           0        2.074468    1.257458    0.042384
     20          1           0        1.699887   -2.094153   -0.097648
     21          1           0        4.103356   -1.991412   -0.124594
     22          1           0        5.296109    0.187286   -0.023388
     23          1           0        3.946708    2.272506    0.123170
     24          1           0        1.534325    2.190292    0.116133
     25          7           0       -0.871822    2.391067   -0.058616
     26          6           0       -1.497817    3.532971    0.576742
     27          6           0       -0.544364    2.553297   -1.459596
     28          1           0       -1.002886    4.443649    0.238775
     29          1           0       -2.558270    3.594991    0.315434
     30          1           0       -1.407491    3.449842    1.655675
     31          1           0       -0.162382    1.618310   -1.858587
     32          1           0       -1.439519    2.838630   -2.018109
     33          1           0        0.207025    3.335661   -1.588035
 ---------------------------------------------------------------------

 SCF Done:  E(RwB97XD) =  -1572.04079668     A.U. after    1 cycles

 The electronic state is 1-A.
 Alpha  occ. eigenvalues -- -101.71198-101.70022 -19.21578 -14.50493 -14.46905
 Alpha  occ. eigenvalues --  -10.45238 -10.38882 -10.32269 -10.30986 -10.30780
 Alpha  occ. eigenvalues --  -10.30764 -10.28244 -10.28243 -10.27664 -10.27639
 Alpha  occ. eigenvalues --  -10.27534 -10.26949  -9.59802  -9.58629  -7.34468
 Alpha  occ. eigenvalues --   -7.33565  -7.33537  -7.33264  -7.32400  -7.32389
 Alpha  occ. eigenvalues --   -1.14361  -1.06757  -1.04103  -0.99949  -0.95745
 Alpha  occ. eigenvalues --   -0.92943  -0.88521  -0.84179  -0.82727  -0.81666
 Alpha  occ. eigenvalues --   -0.80036  -0.79168  -0.71276  -0.69496  -0.67250
 Alpha  occ. eigenvalues --   -0.65125  -0.62832  -0.61479  -0.59837  -0.58525
 Alpha  occ. eigenvalues --   -0.57017  -0.56682  -0.55758  -0.55309  -0.53439
 Alpha  occ. eigenvalues --   -0.52603  -0.50644  -0.49907  -0.49096  -0.49058
 Alpha  occ. eigenvalues --   -0.48731  -0.48523  -0.47877  -0.46844  -0.46099
 Alpha  occ. eigenvalues --   -0.45827  -0.44127  -0.42395  -0.41482  -0.41129
 Alpha  occ. eigenvalues --   -0.39826  -0.38611  -0.35920  -0.35007  -0.33004
 Alpha  occ. eigenvalues --   -0.32783  -0.24899
 Alpha virt. eigenvalues --    0.04615   0.05398   0.05974   0.07550   0.10294
 Alpha virt. eigenvalues --    0.10746   0.12142   0.13227   0.13947   0.14827
 Alpha virt. eigenvalues --    0.15851   0.16179   0.16548   0.17823   0.17945

 Mulliken charges:
               1
     1  C   -0.329459
     2  C    0.299401
     3  O   -0.538426
     4  C    0.179916
     5  C   -0.333570
     6  H    0.171225
     7  H    0.164973
     8  H    0.172110
     9  N   -0.221923
    10  H    0.291499
    11  H    0.284325
    12  Cl  -0.061796
    13  Cl  -0.122065
    14  C    0.249111
    15  C   -0.322682
    16  C   -0.141117
    17  C   -0.193082
    18  C   -0.177107
    19  C   -0.271014
    20  H    0.139457
    21  H    0.133828
    22  H    0.134583
    23  H    0.132753
    24  H    0.158569
    25  N   -0.102507
    26  C   -0.284404
    27  C   -0.313187
    28  H    0.140510
    29  H    0.140880
    30  H    0.146787
    31  H    0.173079
    32  H    0.148144
    33  H    0.151191
 Sum of Mulliken charges =  -0.00000

 Dipole moment (field-independent basis, Debye):
    X=             -2.3180    Y=             -1.9132    Z=              1.2265  Tot=              3.2462
 Quadrupole moment (field-independent basis, Debye-Ang):
   XX=           -115.0028   YY=            -91.0527   ZZ=           -118.4591
   XY=              3.7895   XZ=             -2.0609   YZ=            -13.7364

  Exact polarizability: 335.274  16.274 285.917  -2.670  -8.144 205.526
 Approx polarizability: 251.243   7.660 231.819  -3.676  -4.415 180.400

 ******    1 imaginary frequencies (negative Signs) ******

                      1                      2                      3
                      A                      A                      A
 Frequencies --   -395.4959                38.1176                63.7235
 Red. masses --      6.2629                 3.8540                 4.9971
 Frc consts  --      0.5772                 0.0033                 0.0120
 IR Inten    --    941.3359                 0.5629                 6.7687

                      4                      5                      6
                      A                      A                      A
 Frequencies --     69.4023                78.3788                86.3796
 Red. masses --      4.1868                 1.7542                 2.8601
 Frc consts  --      0.0119                 0.0063                 0.0126
 IR Inten    --      8.1821                 5.5558                 4.9491

                      7                      8                      9
                      A                      A                      A
 Frequencies --     92.2298               103.5639               148.0995
 Red. masses --      2.0984                 2.3933                 5.4647
 Frc consts  --      0.0105                 0.0151                 0.0706
 IR Inten    --      0.4938                15.7365                 2.0103

                     10                     11                     12
                      A                      A                      A
 Frequencies --    171.1774               182.9328               188.7244
 Red. masses --      3.7210                 4.4326                 1.6544
 Frc consts  --      0.0642                 0.0874                 0.0347
 IR Inten    --      4.7911                 1.2731                16.1474

                     13                     14                     15
                      A                      A                      A
 Frequencies --    202.1484               219.9101               234.4350
 Red. masses --      1.3571                 4.2477                 1.8298
 Frc consts  --      0.0327                 0.1210                 0.0593
 IR Inten    --      0.2480                 7.4986                12.1473

                     16                     17                     18
                      A                      A                      A
 Frequencies --    253.5403               259.1051               288.2757
 Red. masses --      6.1423                 5.3306                 3.8823
 Frc consts  --      0.2326                 0.2109                 0.1901
 IR Inten    --     23.0980                 7.2389                40.3160

                     19                     20                     21
                      A                      A                      A
 Frequencies --    296.2352               337.8429               354.4565
 Red. masses --      4.0080                 5.3569                 5.0567
 Frc consts  --      0.2072                 0.3602                 0.3743
 IR Inten    --      1.6440                46.1077                19.7599

                     22                     23                     24
                      A                      A                      A
 Frequencies --    383.3919               425.3608               432.6443
 Red. masses --      5.3582                 3.0261                 3.2466
 Frc consts  --      0.4640                 0.3226                 0.3580
 IR Inten    --     25.1581                 0.8420                 7.3132

                     25                     26                     27
                      A                      A                      A
 Frequencies --    486.4748               513.1733               556.4786
 Red. masses --      4.3399                 3.4457                 6.7277
 Frc consts  --      0.6051                 0.5346                 1.2275
 IR Inten    --    129.6861                16.0535               110.1347

                     28                     29                     30
                      A                      A                      A
 Frequencies --    637.6691               650.5557               676.7882
 Red. masses --      6.3452                 5.3479                 3.0611
 Frc consts  --      1.5202                 1.3335                 0.8261
 IR Inten    --      1.9863                86.1664                 3.8302

                     31                     32                     33
                      A                      A                      A
 Frequencies --    723.0174               725.9235               751.2516
 Red. masses --      2.3823                 3.1490                 5.1976
 Frc consts  --      0.7337                 0.9777                 1.7283
 IR Inten    --     73.5590                49.9590               138.2705

                     34                     35                     36
                      A                      A                      A
 Frequencies --    768.5503               803.7434               841.0431
 Red. masses --      2.3296                 2.5169                 3.4205
 Frc consts  --      0.8107                 0.9580                 1.4255
 IR Inten    --     67.4928               105.2344               119.0811

                     37                     38                     39
                      A                      A                      A
 Frequencies --    866.7598               928.3173               953.2911
 Red. masses --      1.2602                 1.5135                 3.7339
 Frc consts  --      0.5578                 0.7685                 1.9993
 IR Inten    --      2.1275                10.6880                54.4897

                     40                     41                     42
                      A                      A                      A
 Frequencies --   1006.4561              1012.7899              1015.2625
 Red. masses --      1.3575                 1.9731                 2.0253
 Frc consts  --      0.8102                 1.1925                 1.2300
 IR Inten    --      0.3456                 8.6199                11.1222

                     43                     44                     45
                      A                      A                      A
 Frequencies --   1030.1949              1037.4966              1073.4151
 Red. masses --      1.8450                 1.7441                 2.1379
 Frc consts  --      1.1537                 1.1061                 1.4514
 IR Inten    --     50.2165                23.5766                21.7981

                     46                     47                     48
                      A                      A                      A
 Frequencies --   1076.8772              1088.3079              1119.8139
 Red. masses --      2.8965                 1.3801                 1.4275
 Frc consts  --      1.9790                 0.9631                 1.0547
 IR Inten    --     11.6066                16.3979               112.3158

                     49                     50                     51
                      A                      A                      A
 Frequencies --   1125.3832              1130.2623              1179.6358
 Red. masses --      1.6513                 1.2381                 1.3995
 Frc consts  --      1.2322                 0.9319                 1.1474
 IR Inten    --      3.8090                 0.6790                11.2179

                     52                     53                     54
                      A                      A                      A
 Frequencies --   1185.2161              1192.7832              1232.5987
 Red. masses --      1.1193                 2.3278                 1.1707
 Frc consts  --      0.9264                 1.9513                 1.0479
 IR Inten    --      0.1017               163.4106                31.9646

                     55                     56                     57
                      A                      A                      A
 Frequencies --   1264.0816              1269.5989              1312.5537
 Red. masses --      2.8168                 1.5825                 5.2865
 Frc consts  --      2.6519                 1.5029                 5.3660
 IR Inten    --    127.7263               174.5367                26.3273

                     58                     59                     60
                      A                      A                      A
 Frequencies --   1319.5878              1365.4425              1369.7280
 Red. masses --      6.1450                 1.5530                 1.6541
 Frc consts  --      6.3045                 1.7060                 1.8284
 IR Inten    --     51.0580               251.5740               414.3459

                     61                     62                     63
                      A                      A                      A
 Frequencies --   1397.6470              1441.3117              1451.8857
 Red. masses --      2.3222                 1.3539                 1.5018
 Frc consts  --      2.6726                 1.6571                 1.8652
 IR Inten    --    883.8019                96.5140                90.7807

                     64                     65                     66
                      A                      A                      A
 Frequencies --   1457.1362              1475.4020              1481.4576
 Red. masses --      1.2105                 1.1737                 1.0844
 Frc consts  --      1.5144                 1.5053                 1.4022
 IR Inten    --     16.3863                32.3396                 2.8679

                     67                     68                     69
                      A                      A                      A
 Frequencies --   1491.1679              1493.1158              1494.4791
 Red. masses --      1.7606                 1.0781                 1.2148
 Frc consts  --      2.3065                 1.4161                 1.5986
 IR Inten    --     84.1915                40.8005                21.2275

                     70                     71                     72
                      A                      A                      A
 Frequencies --   1501.0615              1501.5855              1541.5371
 Red. masses --      1.0487                 1.0351                 2.0581
 Frc consts  --      1.3922                 1.3751                 2.8815
 IR Inten    --     17.1581                 7.5466               295.2230

                     73                     74                     75
                      A                      A                      A
 Frequencies --   1546.6467              1604.7277              1629.1922
 Red. masses --      1.8353                 1.2627                 5.1062
 Frc consts  --      2.5867                 1.9158                 7.9854
 IR Inten    --    147.8963               294.7421                22.6468

                     76                     77                     78
                      A                      A                      A
 Frequencies --   1650.1054              1667.7681              3041.9480
 Red. masses --      3.6936                 5.6645                 1.0389
 Frc consts  --      5.9254                 9.2829                 5.6638
 IR Inten    --    607.1484               143.9332                43.2353

                     79                     80                     81
                      A                      A                      A
 Frequencies --   3045.6240              3081.3335              3100.7274
 Red. masses --      1.0424                 1.0326                 1.1039
 Frc consts  --      5.6970                 5.7765                 6.2535
 IR Inten    --    111.1240                22.8446                48.2182

                     82                     83                     84
                      A                      A                      A
 Frequencies --   3117.6906              3164.6450              3181.8944
 Red. masses --      1.0968                 1.1051                 1.1009
 Frc consts  --      6.2815                 6.5209                 6.5669
 IR Inten    --     27.7485                 6.9684                 6.6767

                     85                     86                     87
                      A                      A                      A
 Frequencies --   3182.3511              3183.5734              3187.4174
 Red. masses --      1.1066                 1.0982                 1.0860
 Frc consts  --      6.6028                 6.5578                 6.5010
 IR Inten    --      8.3699                 5.9718                 7.4115

                     88                     89                     90
                      A                      A                      A
 Frequencies --   3193.5140              3215.8274              3236.7867
 Red. masses --      1.0907                 1.0963                 1.0908
 Frc consts  --      6.5539                 6.6795                 6.7332
 IR Inten    --     29.2986                35.6617                11.9616

                     91                     92                     93
                      A                      A                      A
 Frequencies --   3260.2525              3423.5541              3565.6529
 Red. masses --      1.0901                 1.0597                 1.0899
 Frc consts  --      6.8267                 7.3180                 8.1642
 IR Inten    --      6.5616               146.2536               118.5182

 - Thermochemistry -
 -------------------
 Temperature   298.150 Kelvin.  Pressure   1.00000 Atm.
 Atom     1 has atomic number  6 and mass  12.00000

 Molecular mass:   274.06397 amu.
 Principal axes and moments of inertia in atomic units:
                           1         2         3
     Eigenvalues --  4007.877064872.639726996.40798
           X            0.99824  -0.05816  -0.01169
           Y            0.05754   0.99721  -0.04753
           Z            0.01442   0.04677   0.99880
 This molecule is an asymmetric top.
 Rotational symmetry number  1.
 Warning -- assumption of classical behavior for rotation
           may cause significant error
 Rotational temperatures (Kelvin)      0.02161     0.01778     0.01238
 Rotational constants (GHZ):           0.45030     0.37038     0.25795
    1 imaginary frequencies ignored.
 Zero-point vibrational energy     701069.2 (Joules/Mol)
                                  167.55956 (Kcal/Mol)
 Warning -- explicit consideration of  26 degrees of freedom as
           vibrations may cause significant error
 Vibrational temperatures:     54.84    91.68    99.85   112.77   124.28
          (Kelvin)            132.70   149.01   213.08   246.29   263.20
                              271.53   290.85   316.40   337.30   364.79
                              372.79   414.76   426.22   486.08   509.98
                              551.62   612.00   622.48   699.93   738.34
                              800.65   917.46   936.00   973.75  1040.26
                             1044.44  1080.88  1105.77  1156.41  1210.07
                             1247.07  1335.64  1371.57  1448.07  1457.18
                             1460.74  1482.22  1492.73  1544.40  1549.39
                             1565.83  1611.16  1619.18  1626.20  1697.23
                             1705.26  1716.15  1773.43  1818.73  1826.67
                             1888.47  1898.59  1964.57  1970.73  2010.90
                             2073.73  2088.94  2096.49  2122.77  2131.49
                             2145.46  2148.26  2150.22  2159.69  2160.45
                             2217.93  2225.28  2308.85  2344.04  2374.13
                             2399.55  4376.68  4381.97  4433.35  4461.26
                             4485.66  4553.22  4578.04  4578.69  4580.45
                             4585.98  4594.75  4626.86  4657.01  4690.78
                             4925.73  5130.18

 Zero-point correction=                           0.267023 (Hartree/Particle)
 Thermal correction to Energy=                    0.285035
 Thermal correction to Enthalpy=                  0.285979
 Thermal correction to Gibbs Free Energy=         0.220597
 Sum of electronic and zero-point Energies=          -1571.773774
 Sum of electronic and thermal Energies=             -1571.755762
 Sum of electronic and thermal Enthalpies=           -1571.754817
 Sum of electronic and thermal Free Energies=        -1571.820200

                     E (Thermal)             CV                S
                      KCal/Mol        Cal/Mol-Kelvin    Cal/Mol-Kelvin
 Total                  178.862             65.419            137.608
 Electronic               0.000              0.000              0.000
 Translational            0.889              2.981             42.723
 Rotational               0.889              2.981             33.279
 Vibrational            177.085             59.457             61.606
 Vibration     1          0.594              1.982              5.355
 Vibration     2          0.597              1.972              4.338
 Vibration     3          0.598              1.969              4.170
 Vibration     4          0.600              1.964              3.931
 Vibration     5          0.601              1.959              3.740
 Vibration     6          0.602              1.955              3.612
 Vibration     7          0.605              1.946              3.386
 Vibration     8          0.617              1.905              2.697
 Vibration     9          0.626              1.878              2.423
 Vibration    10          0.630              1.863              2.298
 Vibration    11          0.633              1.855              2.240
 Vibration    12          0.639              1.837              2.113
 Vibration    13          0.647              1.811              1.960
 Vibration    14          0.654              1.788              1.845
 Vibration    15          0.665              1.757              1.706
 Vibration    16          0.668              1.747              1.668
 Vibration    17          0.685              1.696              1.484
 Vibration    18          0.690              1.681              1.438
 Vibration    19          0.718              1.600              1.222
 Vibration    20          0.730              1.566              1.146
 Vibration    21          0.753              1.506              1.026
 Vibration    22          0.787              1.415              0.874
 Vibration    23          0.794              1.399              0.850
 Vibration    24          0.842              1.280              0.693
 Vibration    25          0.868              1.221              0.626
 Vibration    26          0.912              1.126              0.531

 Optimization completed.
    -- Stationary point found.
 Normal termination of Gaussian 16 at Sat Jun 12 22:59:06 2021.
