 Gaussian 16, Revision A.03,
 Gaussian 16:  ES64L-G16RevA.03 25-Dec-2016

 ----------------------------------------------------------------------
 # wB97XD def2tzvp, opt=(ts, noeigen, calcfc, maxcycles=70, maxstep=5),
  freq=noraman, scrf=(iefpcm, solvent=water)
 ----------------------------------------------------------------------

 ------------------------
 2_iteration/TS-904-2.out
 ------------------------
 Symbolic Z-matrix:
 Charge =  0 Multiplicity = 1

 SCF Done:  E(RwB97XD) =  -1057.08025898     A.U. after   15 cycles
 SCF Done:  E(RwB97XD) =  -1057.08026336     A.U. after   10 cycles
 Optimization completed.
    -- Stationary point found.
 Normal termination of Gaussian 16 at Sun Feb 28 21:48:24 2021.

 ---------------------------------------------------------------------
 #N Geom=AllCheck Guess=TCheck SCRF=Check GenChk RwB97XD/def2TZVP Freq
 ---------------------------------------------------------------------

 Structure from the checkpoint file:  "/beegfs/scratch/user/q/tla25/Gau-115165.chk"
 ------------------------
 2_iteration/TS-904-2.out
 ------------------------
 Charge =  0 Multiplicity = 1

                         Standard orientation:
 ---------------------------------------------------------------------
 Center     Atomic      Atomic             Coordinates (Angstroms)
 Number     Number       Type             X           Y           Z
 ---------------------------------------------------------------------
      1          6           0       -0.879925    1.137917   -0.226891
      2          6           0        0.483242    1.516094   -0.379198
      3          8           0        0.816422    2.654885   -0.754788
      4          6           0       -1.317606   -0.061748    0.365571
      5          6           0       -2.374451   -2.568351   -0.819680
      6          1           0       -2.664187   -3.051072   -1.753566
      7          1           0       -1.645285   -3.193033   -0.309271
      8          1           0       -3.254034   -2.452820   -0.189409
      9          7           0       -1.791665   -1.248529   -1.066934
     10          1           0       -0.911266   -1.318383   -1.565494
     11          1           0       -2.409139   -0.674668   -1.630347
     12         17           0       -2.951341    0.063701    1.118220
     13          6           0       -0.488480   -1.002281    1.200979
     14          1           0        0.355593   -1.400424    0.645822
     15          1           0       -0.108221   -0.469863    2.071904
     16          1           0       -1.102133   -1.829653    1.548946
     17          6           0       -1.893914    2.130160   -0.746273
     18          1           0       -2.787939    1.639855   -1.135516
     19          1           0       -2.227956    2.833991    0.022754
     20          1           0       -1.451890    2.716262   -1.550428
     21          6           0        1.623425    0.562315   -0.143368
     22          6           0        2.402268    0.658740    1.003516
     23          6           0        3.475474   -0.198113    1.194969
     24          6           0        3.792204   -1.146258    0.231040
     25          6           0        3.036008   -1.226697   -0.929679
     26          6           0        1.956259   -0.375128   -1.114912
     27          1           0        2.153695    1.394676    1.758880
     28          1           0        4.066655   -0.127290    2.099465
     29          1           0        4.629403   -1.815869    0.381710
     30          1           0        3.285153   -1.954634   -1.691560
     31          1           0        1.367605   -0.439281   -2.023223
 ---------------------------------------------------------------------

 SCF Done:  E(RwB97XD) =  -1057.08026336     A.U. after    1 cycles

 The electronic state is 1-A.
 Alpha  occ. eigenvalues -- -101.69517 -19.20167 -14.49216 -10.40838 -10.35065
 Alpha  occ. eigenvalues --  -10.32069 -10.29666 -10.29276 -10.29216 -10.29208
 Alpha  occ. eigenvalues --  -10.29073 -10.29038 -10.28946 -10.26657 -10.26526
 Alpha  occ. eigenvalues --   -9.58133  -7.32745  -7.31942  -7.31881  -1.10778
 Alpha  occ. eigenvalues --   -1.04870  -0.97576  -0.96685  -0.88337  -0.85636
 Alpha  occ. eigenvalues --   -0.85314  -0.84091  -0.79553  -0.75949  -0.71963
 Alpha  occ. eigenvalues --   -0.70639  -0.67998  -0.63692  -0.62848  -0.59895
 Alpha  occ. eigenvalues --   -0.57348  -0.56599  -0.55881  -0.54870  -0.54380
 Alpha  occ. eigenvalues --   -0.53044  -0.51184  -0.50499  -0.49954  -0.49260
 Alpha  occ. eigenvalues --   -0.48704  -0.48311  -0.46685  -0.45127  -0.44767
 Alpha  occ. eigenvalues --   -0.44292  -0.44004  -0.43328  -0.42226  -0.39598
 Alpha  occ. eigenvalues --   -0.39033  -0.34139  -0.33969  -0.31318  -0.27288
 Alpha virt. eigenvalues --    0.03760   0.04916   0.05288   0.08263   0.09684
 Alpha virt. eigenvalues --    0.12954   0.13032   0.13953   0.14684   0.15467
 Alpha virt. eigenvalues --    0.16275   0.16664   0.18291   0.18606   0.18839

 Mulliken charges:
               1
     1  C   -0.178761
     2  C    0.245840
     3  O   -0.524694
     4  C    0.106327
     5  C   -0.292726
     6  H    0.160274
     7  H    0.163827
     8  H    0.152320
     9  N   -0.294299
    10  H    0.272145
    11  H    0.285362
    12  Cl  -0.124202
    13  C   -0.414989
    14  H    0.165007
    15  H    0.160912
    16  H    0.169828
    17  C   -0.404225
    18  H    0.116723
    19  H    0.124136
    20  H    0.127056
    21  C    0.208679
    22  C   -0.248423
    23  C   -0.136826
    24  C   -0.155114
    25  C   -0.131474
    26  C   -0.290465
    27  H    0.144870
    28  H    0.143459
    29  H    0.144763
    30  H    0.144022
    31  H    0.160649
 Sum of Mulliken charges =  -0.00000

 Dipole moment (field-independent basis, Debye):
    X=             -3.3813    Y=            -10.7507    Z=             -1.3835  Tot=             11.3545
 Quadrupole moment (field-independent basis, Debye-Ang):
   XX=            -92.4147   YY=           -106.7511   ZZ=            -90.1650
   XY=             -1.4340   XZ=             12.0561   YZ=             11.0785

  Exact polarizability: 263.801   6.658 246.375   5.292   9.087 204.096
 Approx polarizability: 200.234   1.945 200.646   3.813   8.697 178.149

 ******    1 imaginary frequencies (negative Signs) ******

                      1                      2                      3
                      A                      A                      A
 Frequencies --   -373.2286                38.1617                52.1059
 Red. masses --      6.3278                 4.0692                 4.6707
 Frc consts  --      0.5193                 0.0035                 0.0075
 IR Inten    --   1068.6699                 2.7149                 2.4079

                      4                      5                      6
                      A                      A                      A
 Frequencies --     69.6249                73.2645                81.7005
 Red. masses --      2.7435                 1.7765                 4.6624
 Frc consts  --      0.0078                 0.0056                 0.0183
 IR Inten    --      1.1120                 1.7647                 4.3818

                      7                      8                      9
                      A                      A                      A
 Frequencies --     94.5380               145.2293               174.9022
 Red. masses --      1.3630                 3.1005                 1.7632
 Frc consts  --      0.0072                 0.0385                 0.0318
 IR Inten    --      1.7562                 3.8288                 3.2046

                     10                     11                     12
                      A                      A                      A
 Frequencies --    200.2380               228.0069               230.6427
 Red. masses --      2.1679                 4.0178                 5.2372
 Frc consts  --      0.0512                 0.1231                 0.1641
 IR Inten    --      1.8420                 2.1396                20.8823

                     13                     14                     15
                      A                      A                      A
 Frequencies --    276.8339               300.2783               301.1379
 Red. masses --      2.9803                 2.2035                 3.2139
 Frc consts  --      0.1346                 0.1171                 0.1717
 IR Inten    --     10.6920                 2.8534                 5.9191

                     16                     17                     18
                      A                      A                      A
 Frequencies --    318.9907               371.3134               376.2762
 Red. masses --      1.8191                 4.0214                 2.8606
 Frc consts  --      0.1091                 0.3267                 0.2386
 IR Inten    --      2.4658                18.7091                11.3222

                     19                     20                     21
                      A                      A                      A
 Frequencies --    396.5814               417.5030               429.8208
 Red. masses --      2.9882                 2.8560                 4.2005
 Frc consts  --      0.2769                 0.2933                 0.4572
 IR Inten    --      7.0836                 0.6263                20.2317

                     22                     23                     24
                      A                      A                      A
 Frequencies --    498.8129               557.7916               596.4889
 Red. masses --      4.0783                 4.1334                 3.4066
 Frc consts  --      0.5979                 0.7577                 0.7141
 IR Inten    --    203.7786                17.0730                38.2429

                     25                     26                     27
                      A                      A                      A
 Frequencies --    634.7664               663.4390               693.8570
 Red. masses --      6.3819                 2.7575                 1.9171
 Frc consts  --      1.5150                 0.7151                 0.5438
 IR Inten    --      0.4857                65.0971                53.4818

                     28                     29                     30
                      A                      A                      A
 Frequencies --    729.5850               749.1523               778.2205
 Red. masses --      1.5771                 2.8594                 6.1486
 Frc consts  --      0.4946                 0.9455                 2.1940
 IR Inten    --    104.3069                54.5546                78.4644

                     31                     32                     33
                      A                      A                      A
 Frequencies --    811.9070               881.8680               907.8145
 Red. masses --      2.6383                 1.2505                 2.2264
 Frc consts  --      1.0247                 0.5730                 1.0811
 IR Inten    --     81.8386                 0.2606                88.9052

                     34                     35                     36
                      A                      A                      A
 Frequencies --    955.9636              1002.0910              1012.3843
 Red. masses --      1.4767                 2.2020                 1.3846
 Frc consts  --      0.7951                 1.3028                 0.8361
 IR Inten    --     98.0533               172.1182                 0.8845

                     37                     38                     39
                      A                      A                      A
 Frequencies --   1020.9531              1025.6488              1031.0080
 Red. masses --      1.1832                 5.5286                 1.3358
 Frc consts  --      0.7266                 3.4266                 0.8366
 IR Inten    --     74.9456                 0.6098                 2.3098

                     40                     41                     42
                      A                      A                      A
 Frequencies --   1050.0692              1054.8193              1059.9109
 Red. masses --      2.1087                 1.2888                 1.6134
 Frc consts  --      1.3700                 0.8449                 1.0679
 IR Inten    --     29.8667               147.3350                 7.7902

                     43                     44                     45
                      A                      A                      A
 Frequencies --   1063.8944              1081.3806              1109.0946
 Red. masses --      1.6818                 1.9202                 1.9172
 Frc consts  --      1.1216                 1.3230                 1.3895
 IR Inten    --     10.1944                24.4100                44.1354

                     46                     47                     48
                      A                      A                      A
 Frequencies --   1110.7423              1134.9777              1182.9259
 Red. masses --      1.7032                 2.3575                 1.1391
 Frc consts  --      1.2381                 1.7893                 0.9392
 IR Inten    --     30.3455               123.1357                 0.0732

                     49                     50                     51
                      A                      A                      A
 Frequencies --   1205.6869              1223.4532              1242.6013
 Red. masses --      1.1231                 3.6475                 1.3633
 Frc consts  --      0.9619                 3.2168                 1.2402
 IR Inten    --      0.5781                 6.9387                51.2320

                     52                     53                     54
                      A                      A                      A
 Frequencies --   1317.7549              1346.2944              1357.7114
 Red. masses --      4.2526                 1.3089                 1.4654
 Frc consts  --      4.3508                 1.3978                 1.5915
 IR Inten    --      3.2778                 2.4443                 0.9258

                     55                     56                     57
                      A                      A                      A
 Frequencies --   1402.8184              1408.7434              1418.5429
 Red. masses --      1.4731                 2.3902                 1.7217
 Frc consts  --      1.7080                 2.7947                 2.0412
 IR Inten    --    189.3382              1011.7964                49.0268

                     58                     59                     60
                      A                      A                      A
 Frequencies --   1439.3288              1459.9750              1465.0054
 Red. masses --      2.3767                 1.2226                 1.1157
 Frc consts  --      2.9010                 1.5355                 1.4108
 IR Inten    --    273.2588                62.9370                14.6364

                     61                     62                     63
                      A                      A                      A
 Frequencies --   1486.5566              1489.1457              1493.3517
 Red. masses --      1.5706                 1.2916                 1.0569
 Frc consts  --      2.0449                 1.6876                 1.3887
 IR Inten    --      5.9529                32.5819                 4.2498

                     64                     65                     66
                      A                      A                      A
 Frequencies --   1498.1959              1503.3502              1510.5731
 Red. masses --      1.0432                 1.1369                 1.0527
 Frc consts  --      1.3795                 1.5139                 1.4153
 IR Inten    --     12.1164               235.6270                69.7305

                     67                     68                     69
                      A                      A                      A
 Frequencies --   1542.4384              1592.8916              1640.3244
 Red. masses --      2.4181                 9.9412                 1.0972
 Frc consts  --      3.3896                14.8614                 1.7394
 IR Inten    --     12.1322               730.5097                39.8519

                     70                     71                     72
                      A                      A                      A
 Frequencies --   1648.4881              1675.0647              3033.3311
 Red. masses --      5.6136                 5.9219                 1.0456
 Frc consts  --      8.9879                 9.7898                 5.6683
 IR Inten    --      1.2191                 1.0800                81.1448

                     73                     74                     75
                      A                      A                      A
 Frequencies --   3072.3126              3090.8226              3093.9554
 Red. masses --      1.0351                 1.0375                 1.0930
 Frc consts  --      5.7566                 5.8398                 6.1644
 IR Inten    --     42.3526                 7.9295                44.5321

                     76                     77                     78
                      A                      A                      A
 Frequencies --   3141.4997              3151.5987              3166.1666
 Red. masses --      1.0991                 1.1027                 1.1023
 Frc consts  --      6.3911                 6.4531                 6.5103
 IR Inten    --     22.3104                10.7166                13.1431

                     79                     80                     81
                      A                      A                      A
 Frequencies --   3177.7343              3183.5073              3191.9141
 Red. masses --      1.1060                 1.0884                 1.1007
 Frc consts  --      6.5799                 6.4989                 6.6071
 IR Inten    --     10.6490                11.9754                 4.5971

                     82                     83                     84
                      A                      A                      A
 Frequencies --   3192.2639              3201.7481              3209.9104
 Red. masses --      1.0880                 1.0906                 1.0948
 Frc consts  --      6.5324                 6.5868                 6.6463
 IR Inten    --      1.2394                 5.8754                39.5215

                     85                     86                     87
                      A                      A                      A
 Frequencies --   3221.3603              3523.7751              3603.1475
 Red. masses --      1.0987                 1.0512                 1.0958
 Frc consts  --      6.7175                 7.6904                 8.3819
 IR Inten    --     19.9744                15.3691                54.0988

 - Thermochemistry -
 -------------------
 Temperature   298.150 Kelvin.  Pressure   1.00000 Atm.
 Atom     1 has atomic number  6 and mass  12.00000

 Molecular mass:   225.09204 amu.
 Principal axes and moments of inertia in atomic units:
                           1         2         3
     Eigenvalues --  2223.569264909.709135751.96102
           X            0.99971  -0.00308   0.02386
           Y            0.00258   0.99978   0.02105
           Z           -0.02392  -0.02098   0.99949
 This molecule is an asymmetric top.
 Rotational symmetry number  1.
 Warning -- assumption of classical behavior for rotation
           may cause significant error
 Rotational temperatures (Kelvin)      0.03895     0.01764     0.01506
 Rotational constants (GHZ):           0.81164     0.36759     0.31376
    1 imaginary frequencies ignored.
 Zero-point vibrational energy     679479.3 (Joules/Mol)
                                  162.39944 (Kcal/Mol)
 Warning -- explicit consideration of  23 degrees of freedom as
           vibrations may cause significant error
 Vibrational temperatures:     54.91    74.97   100.17   105.41   117.55
          (Kelvin)            136.02   208.95   251.65   288.10   328.05
                              331.84   398.30   432.03   433.27   458.96
                              534.24   541.38   570.59   600.69   618.42
                              717.68   802.54   858.21   913.29   954.54
                              998.31  1049.71  1077.86  1119.69  1168.15
                             1268.81  1306.14  1375.42  1441.79  1456.60
                             1468.92  1475.68  1483.39  1510.82  1517.65
                             1524.98  1530.71  1555.87  1595.74  1598.11
                             1632.98  1701.97  1734.71  1760.28  1787.83
                             1895.96  1937.02  1953.44  2018.34  2026.87
                             2040.97  2070.87  2100.58  2107.82  2138.82
                             2142.55  2148.60  2155.57  2162.99  2173.38
                             2219.22  2291.82  2360.06  2371.81  2410.04
                             4364.29  4420.37  4447.00  4451.51  4519.92
                             4534.45  4555.41  4572.05  4580.36  4592.45
                             4592.96  4606.60  4618.35  4634.82  5069.93
                             5184.13

 Zero-point correction=                           0.258800 (Hartree/Particle)
 Thermal correction to Energy=                    0.274538
 Thermal correction to Enthalpy=                  0.275482
 Thermal correction to Gibbs Free Energy=         0.214952
 Sum of electronic and zero-point Energies=          -1056.821463
 Sum of electronic and thermal Energies=             -1056.805725
 Sum of electronic and thermal Enthalpies=           -1056.804781
 Sum of electronic and thermal Free Energies=        -1056.865312

                     E (Thermal)             CV                S
                      KCal/Mol        Cal/Mol-Kelvin    Cal/Mol-Kelvin
 Total                  172.275             58.040            127.398
 Electronic               0.000              0.000              0.000
 Translational            0.889              2.981             42.136
 Rotational               0.889              2.981             32.507
 Vibrational            170.498             52.078             52.755
 Vibration     1          0.594              1.982              5.352
 Vibration     2          0.596              1.977              4.736
 Vibration     3          0.598              1.969              4.164
 Vibration     4          0.599              1.967              4.064
 Vibration     5          0.600              1.962              3.850
 Vibration     6          0.603              1.953              3.564
 Vibration     7          0.617              1.908              2.734
 Vibration     8          0.627              1.873              2.382
 Vibration     9          0.638              1.840              2.131
 Vibration    10          0.651              1.798              1.895
 Vibration    11          0.652              1.794              1.874
 Vibration    12          0.678              1.716              1.553
 Vibration    13          0.693              1.673              1.415
 Vibration    14          0.693              1.672              1.411
 Vibration    15          0.705              1.637              1.315
 Vibration    16          0.743              1.531              1.074
 Vibration    17          0.747              1.521              1.054
 Vibration    18          0.763              1.477              0.975
 Vibration    19          0.781              1.432              0.900
 Vibration    20          0.791              1.405              0.859
 Vibration    21          0.854              1.253              0.661
 Vibration    22          0.913              1.123              0.528
 Vibration    23          0.954              1.039              0.456

 Optimization completed.
    -- Stationary point found.
 Normal termination of Gaussian 16 at Sun Feb 28 23:00:56 2021.
