 Gaussian 16, Revision A.03,
 Gaussian 16:  ES64L-G16RevA.03 25-Dec-2016

 ----------------------------------------------------------------------
 # wB97XD def2tzvp, opt=(ts, noeigen, calcfc, maxcycles=70, maxstep=8),
  freq=noraman, scrf=(iefpcm, solvent=water)
 ----------------------------------------------------------------------

 ------------------------
 1_iteration/TS-925-1.out
 ------------------------
 Symbolic Z-matrix:
 Charge =  0 Multiplicity = 1

 SCF Done:  E(RwB97XD) =  -3646.73564029     A.U. after   15 cycles
 SCF Done:  E(RwB97XD) =  -3646.73773434     A.U. after   13 cycles
 SCF Done:  E(RwB97XD) =  -3646.73888573     A.U. after   13 cycles
 SCF Done:  E(RwB97XD) =  -3646.73909858     A.U. after   13 cycles
 SCF Done:  E(RwB97XD) =  -3646.73949045     A.U. after   13 cycles
 SCF Done:  E(RwB97XD) =  -3646.73960294     A.U. after   12 cycles
 SCF Done:  E(RwB97XD) =  -3646.73963126     A.U. after   13 cycles
 SCF Done:  E(RwB97XD) =  -3646.73956692     A.U. after   13 cycles
 SCF Done:  E(RwB97XD) =  -3646.73984688     A.U. after   12 cycles
 SCF Done:  E(RwB97XD) =  -3646.73988827     A.U. after   11 cycles
 SCF Done:  E(RwB97XD) =  -3646.73991925     A.U. after   11 cycles
 SCF Done:  E(RwB97XD) =  -3646.73990894     A.U. after   12 cycles
 SCF Done:  E(RwB97XD) =  -3646.73993496     A.U. after   12 cycles
 SCF Done:  E(RwB97XD) =  -3646.73994210     A.U. after   10 cycles
 SCF Done:  E(RwB97XD) =  -3646.73994362     A.U. after   10 cycles
 SCF Done:  E(RwB97XD) =  -3646.73994297     A.U. after    9 cycles
 SCF Done:  E(RwB97XD) =  -3646.73994287     A.U. after    7 cycles
 SCF Done:  E(RwB97XD) =  -3646.73994243     A.U. after    7 cycles
 SCF Done:  E(RwB97XD) =  -3646.73994282     A.U. after    7 cycles
 Optimization completed.
    -- Stationary point found.
 Normal termination of Gaussian 16 at Sun Feb 28 21:01:46 2021.

 ---------------------------------------------------------------------
 #N Geom=AllCheck Guess=TCheck SCRF=Check GenChk RwB97XD/def2TZVP Freq
 ---------------------------------------------------------------------

 Structure from the checkpoint file:  "/beegfs/scratch/user/q/tla25/Gau-49494.chk"
 ------------------------
 1_iteration/TS-925-1.out
 ------------------------
 Charge =  0 Multiplicity = 1

                         Standard orientation:
 ---------------------------------------------------------------------
 Center     Atomic      Atomic             Coordinates (Angstroms)
 Number     Number       Type             X           Y           Z
 ---------------------------------------------------------------------
      1          6           0        0.212091    0.388046   -0.095359
      2          6           0       -0.234860    1.782751   -0.180060
      3          8           0        0.577611    2.706433   -0.274457
      4          6           0       -0.609316   -0.686713    0.147642
      5          6           0       -0.607034   -0.091989    2.877687
      6          1           0       -1.121540    0.061227    3.825611
      7          1           0        0.175274   -0.837820    3.005265
      8          1           0       -0.159984    0.848156    2.557590
      9          7           0       -1.530477   -0.536109    1.845040
     10          1           0       -1.940022   -1.441573    2.046623
     11          1           0       -2.279873    0.133241    1.710959
     12         17           0        0.140991   -2.251857    0.368053
     13         35           0       -2.298892   -0.990445   -0.906892
     14          6           0        1.692472    0.190660   -0.177778
     15          6           0        2.275610   -0.157849   -1.393538
     16          6           0        3.647112   -0.337876   -1.503225
     17          6           0        4.461226   -0.166525   -0.393021
     18          6           0        3.893789    0.187786    0.823199
     19          6           0        2.522118    0.365325    0.926494
     20          1           0        1.641301   -0.293401   -2.261553
     21          1           0        4.079821   -0.612041   -2.457497
     22          1           0        5.531790   -0.307014   -0.474670
     23          1           0        4.521227    0.325971    1.695139
     24          1           0        2.089576    0.643645    1.879104
     25          7           0       -1.567654    2.064351   -0.073075
     26          6           0       -2.035404    3.425406   -0.224198
     27          1           0       -2.219850    1.344270   -0.332789
     28          1           0       -3.112361    3.438060   -0.068135
     29          1           0       -1.566932    4.069487    0.518560
     30          1           0       -1.814838    3.831656   -1.215042
 ---------------------------------------------------------------------

 SCF Done:  E(RwB97XD) =  -3646.73994282     A.U. after    1 cycles

 The electronic state is 1-A.
 Alpha  occ. eigenvalues -- -483.13691-101.71597 -62.68539 -56.47648 -56.47305
 Alpha  occ. eigenvalues --  -56.47293 -19.20422 -14.49846 -14.44827 -10.44731
 Alpha  occ. eigenvalues --  -10.38248 -10.32230 -10.30629 -10.30002 -10.28743
 Alpha  occ. eigenvalues --  -10.28711 -10.28657 -10.28490 -10.28461 -10.27993
 Alpha  occ. eigenvalues --   -9.60170  -8.82638  -7.34848  -7.33938  -7.33895
 Alpha  occ. eigenvalues --   -6.64757  -6.63677  -6.63640  -2.75136  -2.74845
 Alpha  occ. eigenvalues --   -2.74815  -2.73943  -2.73941  -1.13284  -1.05639
 Alpha  occ. eigenvalues --   -1.01524  -0.99734  -0.96177  -0.89691  -0.87961
 Alpha  occ. eigenvalues --   -0.84730  -0.82935  -0.79618  -0.78942  -0.71058
 Alpha  occ. eigenvalues --   -0.70063  -0.68671  -0.66018  -0.64355  -0.61777
 Alpha  occ. eigenvalues --   -0.59368  -0.58202  -0.56633  -0.55763  -0.54109
 Alpha  occ. eigenvalues --   -0.53823  -0.53272  -0.52393  -0.51036  -0.50519
 Alpha  occ. eigenvalues --   -0.48999  -0.48647  -0.47593  -0.47110  -0.46289
 Alpha  occ. eigenvalues --   -0.45873  -0.42831  -0.42483  -0.41551  -0.40752
 Alpha  occ. eigenvalues --   -0.37936  -0.37866  -0.34762  -0.33912  -0.33260
 Alpha  occ. eigenvalues --   -0.32587  -0.28475
 Alpha virt. eigenvalues --    0.01129   0.04405   0.05802   0.05949   0.08586
 Alpha virt. eigenvalues --    0.10064   0.12916   0.13423   0.14277   0.15661
 Alpha virt. eigenvalues --    0.15802   0.16392   0.16956   0.17814   0.18318

 Mulliken charges:
               1
     1  C   -0.247542
     2  C    0.324269
     3  O   -0.523502
     4  C    0.082290
     5  C   -0.309401
     6  H    0.172344
     7  H    0.165881
     8  H    0.159726
     9  N   -0.308274
    10  H    0.297659
    11  H    0.284658
    12  Cl  -0.038202
    13  Br  -0.130588
    14  C    0.249250
    15  C   -0.234528
    16  C   -0.158638
    17  C   -0.131204
    18  C   -0.167532
    19  C   -0.229830
    20  H    0.135090
    21  H    0.138792
    22  H    0.142250
    23  H    0.138320
    24  H    0.143795
    25  N   -0.332385
    26  C   -0.261224
    27  H    0.240229
    28  H    0.140090
    29  H    0.133058
    30  H    0.125149
 Sum of Mulliken charges =  -0.00000

 Dipole moment (field-independent basis, Debye):
    X=             -6.1106    Y=             -3.5002    Z=              5.9185  Tot=              9.1989
 Quadrupole moment (field-independent basis, Debye-Ang):
   XX=           -101.1284   YY=           -127.0187   ZZ=            -97.9581
   XY=            -10.0869   XZ=             -6.5568   YZ=             -0.3528

  Exact polarizability: 299.196   7.429 237.861   3.610   3.533 247.273
 Approx polarizability: 234.684   5.891 195.789   2.885   4.035 208.453

 ******    1 imaginary frequencies (negative Signs) ******

                      1                      2                      3
                      A                      A                      A
 Frequencies --   -400.1860                32.4485                52.9711
 Red. masses --      5.6009                 3.7432                 5.9331
 Frc consts  --      0.5285                 0.0023                 0.0098
 IR Inten    --    513.0344                 0.7170                 7.2579

                      4                      5                      6
                      A                      A                      A
 Frequencies --     68.9175                73.4818                78.5750
 Red. masses --      4.1581                 4.7077                 5.1163
 Frc consts  --      0.0116                 0.0150                 0.0186
 IR Inten    --      7.2276                 6.2285                 5.6858

                      7                      8                      9
                      A                      A                      A
 Frequencies --    110.4092               128.8361               142.0515
 Red. masses --      2.6260                 4.5518                 1.1514
 Frc consts  --      0.0189                 0.0445                 0.0137
 IR Inten    --      4.0942                 4.5739                 3.8441

                     10                     11                     12
                      A                      A                      A
 Frequencies --    152.2468               174.3946               181.0997
 Red. masses --      2.9786                 1.5541                 3.1302
 Frc consts  --      0.0407                 0.0278                 0.0605
 IR Inten    --      0.3977                 1.9041                13.2401

                     13                     14                     15
                      A                      A                      A
 Frequencies --    204.4241               218.6363               242.3020
 Red. masses --      5.5823                 5.9633                 4.9502
 Frc consts  --      0.1374                 0.1680                 0.1712
 IR Inten    --      3.0407                 3.5287                 3.2085

                     16                     17                     18
                      A                      A                      A
 Frequencies --    258.3507               262.4937               283.5707
 Red. masses --      3.8892                 4.4519                 4.9180
 Frc consts  --      0.1529                 0.1807                 0.2330
 IR Inten    --     25.5186                24.4197                 9.1029

                     19                     20                     21
                      A                      A                      A
 Frequencies --    334.4102               375.7949               411.3043
 Red. masses --      5.6097                 5.5605                 6.4737
 Frc consts  --      0.3696                 0.4627                 0.6452
 IR Inten    --     22.8808                38.8684                27.2704

                     22                     23                     24
                      A                      A                      A
 Frequencies --    423.4101               516.3954               523.2352
 Red. masses --      2.8513                 2.8746                 1.6205
 Frc consts  --      0.3012                 0.4516                 0.2614
 IR Inten    --      0.0534                25.7920                77.2555

                     25                     26                     27
                      A                      A                      A
 Frequencies --    573.0710               621.2504               639.8011
 Red. masses --      4.4738                 5.5186                 5.4908
 Frc consts  --      0.8656                 1.2549                 1.3243
 IR Inten    --    185.2555               174.8584                 3.8753

                     28                     29                     30
                      A                      A                      A
 Frequencies --    656.2182               713.9529               726.0888
 Red. masses --      1.6847                 4.3415                 1.4311
 Frc consts  --      0.4274                 1.3039                 0.4445
 IR Inten    --      8.9021               110.7034               161.6784

                     31                     32                     33
                      A                      A                      A
 Frequencies --    772.3809               798.9060               813.2431
 Red. masses --      3.7005                 7.2605                 2.6224
 Frc consts  --      1.3007                 2.7303                 1.0219
 IR Inten    --    138.8105                46.4774                21.3314

                     34                     35                     36
                      A                      A                      A
 Frequencies --    874.6380               889.9759               947.2685
 Red. masses --      1.2507                 4.5886                 1.7305
 Frc consts  --      0.5637                 2.1413                 0.9149
 IR Inten    --      0.1735                48.9828                 0.7310

                     37                     38                     39
                      A                      A                      A
 Frequencies --    975.8281              1008.0606              1009.8009
 Red. masses --      2.7821                 1.1992                 1.2588
 Frc consts  --      1.5609                 0.7180                 0.7563
 IR Inten    --     13.8278                15.6014                10.6934

                     40                     41                     42
                      A                      A                      A
 Frequencies --   1026.1921              1027.0139              1042.8011
 Red. masses --      1.3310                 5.7060                 1.1159
 Frc consts  --      0.8258                 3.5459                 0.7149
 IR Inten    --      0.0859                 1.5399                90.8878

                     43                     44                     45
                      A                      A                      A
 Frequencies --   1061.3963              1086.2314              1108.6222
 Red. masses --      2.1917                 5.0752                 1.5482
 Frc consts  --      1.4548                 3.5281                 1.1211
 IR Inten    --     10.5509                49.1500                12.6175

                     46                     47                     48
                      A                      A                      A
 Frequencies --   1130.0118              1152.0494              1181.2402
 Red. masses --      3.2294                 1.3764                 1.1343
 Frc consts  --      2.4296                 1.0763                 0.9325
 IR Inten    --     10.8453                 6.1139                 0.1481

                     49                     50                     51
                      A                      A                      A
 Frequencies --   1183.8972              1206.1589              1222.6460
 Red. masses --      1.7125                 1.1197                 1.4055
 Frc consts  --      1.4142                 0.9598                 1.2379
 IR Inten    --     57.4785                 0.5190                30.4942

                     52                     53                     54
                      A                      A                      A
 Frequencies --   1261.1614              1307.9047              1314.6860
 Red. masses --      3.1148                 4.4705                 3.9962
 Frc consts  --      2.9189                 4.5056                 4.0695
 IR Inten    --     52.5646                 0.8336               716.1321

                     55                     56                     57
                      A                      A                      A
 Frequencies --   1347.2402              1355.2877              1445.5419
 Red. masses --      1.3457                 1.4455                 1.8208
 Frc consts  --      1.4391                 1.5644                 2.2417
 IR Inten    --     16.7589                 1.2266               324.9557

                     58                     59                     60
                      A                      A                      A
 Frequencies --   1456.2599              1468.9767              1477.9515
 Red. masses --      1.1984                 2.0003                 1.0797
 Frc consts  --      1.4974                 2.5432                 1.3896
 IR Inten    --     17.8753               294.1916                34.9601

                     61                     62                     63
                      A                      A                      A
 Frequencies --   1486.8588              1496.4933              1499.6695
 Red. masses --      2.1812                 1.0461                 1.0458
 Frc consts  --      2.8411                 1.3803                 1.3858
 IR Inten    --      8.9620                40.8774                18.4307

                     64                     65                     66
                      A                      A                      A
 Frequencies --   1502.7338              1544.5453              1560.0082
 Red. masses --      1.0778                 2.4258                 1.7753
 Frc consts  --      1.4341                 3.4096                 2.5456
 IR Inten    --      8.1853                39.4380               446.7015

                     67                     68                     69
                      A                      A                      A
 Frequencies --   1631.1623              1646.6213              1660.7365
 Red. masses --      1.1107                 5.7802                 6.9572
 Frc consts  --      1.7412                 9.2339                11.3054
 IR Inten    --    134.6544                 1.4600               585.8747

                     70                     71                     72
                      A                      A                      A
 Frequencies --   1672.9131              3046.2041              3074.6423
 Red. masses --      6.1336                 1.0423                 1.0325
 Frc consts  --     10.1138                 5.6982                 5.7507
 IR Inten    --    160.3251                84.6086                23.6908

                     73                     74                     75
                      A                      A                      A
 Frequencies --   3121.2406              3156.3453              3160.0454
 Red. masses --      1.0942                 1.1048                 1.1044
 Frc consts  --      6.2804                 6.4850                 6.4979
 IR Inten    --     37.8153                 9.0256                22.1864

                     76                     77                     78
                      A                      A                      A
 Frequencies --   3170.3417              3188.8180              3194.6177
 Red. masses --      1.1060                 1.0859                 1.0881
 Frc consts  --      6.5498                 6.5059                 6.5426
 IR Inten    --      8.8398                 4.1622                 0.4310

                     79                     80                     81
                      A                      A                      A
 Frequencies --   3203.9155              3211.9580              3220.1449
 Red. masses --      1.0921                 1.0946                 1.0984
 Frc consts  --      6.6051                 6.6533                 6.7107
 IR Inten    --     24.1368                45.9518                16.4714

                     82                     83                     84
                      A                      A                      A
 Frequencies --   3522.3364              3608.6290              3631.7746
 Red. masses --      1.0503                 1.0970                 1.0770
 Frc consts  --      7.6780                 8.4167                 8.3695
 IR Inten    --     63.7918                66.3382               128.3060

 - Thermochemistry -
 -------------------
 Temperature   298.150 Kelvin.  Pressure   1.00000 Atm.
 Atom     1 has atomic number  6 and mass  12.00000

 Molecular mass:   303.99780 amu.
 Principal axes and moments of inertia in atomic units:
                           1         2         3
     Eigenvalues --  3634.910676274.376827440.36243
           X            0.99769  -0.06150  -0.02886
           Y            0.06093   0.99794  -0.01996
           Z            0.03003   0.01815   0.99938
 This molecule is an asymmetric top.
 Rotational symmetry number  1.
 Warning -- assumption of classical behavior for rotation
           may cause significant error
 Rotational temperatures (Kelvin)      0.02383     0.01380     0.01164
 Rotational constants (GHZ):           0.49650     0.28764     0.24256
    1 imaginary frequencies ignored.
 Zero-point vibrational energy     624129.3 (Joules/Mol)
                                  149.17048 (Kcal/Mol)
 Warning -- explicit consideration of  24 degrees of freedom as
           vibrations may cause significant error
 Vibrational temperatures:     46.69    76.21    99.16   105.72   113.05
          (Kelvin)            158.85   185.37   204.38   219.05   250.91
                              260.56   294.12   314.57   348.62   371.71
                              377.67   407.99   481.14   540.69   591.78
                              609.19   742.98   752.82   824.52   893.84
                              920.53   944.15  1027.22  1044.68  1111.28
                             1149.45  1170.08  1258.41  1280.48  1362.91
                             1404.00  1450.37  1452.88  1476.46  1477.64
                             1500.36  1527.11  1562.84  1595.06  1625.83
                             1657.54  1699.54  1703.36  1735.39  1759.11
                             1814.53  1881.78  1891.54  1938.38  1949.96
                             2079.81  2095.23  2113.53  2126.44  2139.26
                             2153.12  2157.69  2162.10  2222.26  2244.50
                             2346.88  2369.12  2389.43  2406.95  4382.81
                             4423.72  4490.77  4541.28  4546.60  4561.41
                             4588.00  4596.34  4609.72  4621.29  4633.07
                             5067.86  5192.01  5225.31

 Zero-point correction=                           0.237718 (Hartree/Particle)
 Thermal correction to Energy=                    0.254901
 Thermal correction to Enthalpy=                  0.255845
 Thermal correction to Gibbs Free Energy=         0.191239
 Sum of electronic and zero-point Energies=          -3646.502225
 Sum of electronic and thermal Energies=             -3646.485042
 Sum of electronic and thermal Enthalpies=           -3646.484098
 Sum of electronic and thermal Free Energies=        -3646.548704

                     E (Thermal)             CV                S
                      KCal/Mol        Cal/Mol-Kelvin    Cal/Mol-Kelvin
 Total                  159.953             61.265            135.975
 Electronic               0.000              0.000              0.000
 Translational            0.889              2.981             43.032
 Rotational               0.889              2.981             33.495
 Vibrational            158.175             55.303             59.448
 Vibration     1          0.594              1.983              5.674
 Vibration     2          0.596              1.976              4.703
 Vibration     3          0.598              1.969              4.184
 Vibration     4          0.599              1.967              4.058
 Vibration     5          0.600              1.964              3.926
 Vibration     6          0.606              1.941              3.262
 Vibration     7          0.611              1.924              2.963
 Vibration     8          0.616              1.911              2.776
 Vibration     9          0.619              1.900              2.644
 Vibration    10          0.627              1.874              2.388
 Vibration    11          0.630              1.865              2.317
 Vibration    12          0.640              1.834              2.093
 Vibration    13          0.646              1.813              1.970
 Vibration    14          0.658              1.775              1.786
 Vibration    15          0.667              1.749              1.673
 Vibration    16          0.670              1.742              1.645
 Vibration    17          0.682              1.704              1.512
 Vibration    18          0.716              1.607              1.239
 Vibration    19          0.747              1.522              1.056
 Vibration    20          0.775              1.446              0.922
 Vibration    21          0.786              1.419              0.880
 Vibration    22          0.871              1.214              0.618
 Vibration    23          0.878              1.199              0.603
 Vibration    24          0.929              1.089              0.498

 Optimization completed.
    -- Stationary point found.
 Normal termination of Gaussian 16 at Sun Feb 28 22:16:57 2021.
