 Gaussian 16, Revision A.03,
 Gaussian 16:  ES64L-G16RevA.03 25-Dec-2016

 ----------------------------------------------------------------------
 # wB97XD def2tzvp, opt=(ts, noeigen, calcfc, maxcycles=70, maxstep=3),
  freq=noraman, scrf=(iefpcm, solvent=water)
 ----------------------------------------------------------------------

 ------------------------
 0_iteration/TS-978-0.out
 ------------------------
 Symbolic Z-matrix:
 Charge =  0 Multiplicity = 1

 SCF Done:  E(RwB97XD) =  -1285.61168508     A.U. after   15 cycles
 SCF Done:  E(RwB97XD) =  -1285.61101106     A.U. after   12 cycles
 SCF Done:  E(RwB97XD) =  -1285.61037250     A.U. after   12 cycles
 SCF Done:  E(RwB97XD) =  -1285.60977403     A.U. after   12 cycles
 SCF Done:  E(RwB97XD) =  -1285.60922292     A.U. after   12 cycles
 SCF Done:  E(RwB97XD) =  -1285.60873329     A.U. after   12 cycles
 SCF Done:  E(RwB97XD) =  -1285.60833250     A.U. after   12 cycles
 SCF Done:  E(RwB97XD) =  -1285.60804590     A.U. after   12 cycles
 SCF Done:  E(RwB97XD) =  -1285.60796689     A.U. after   12 cycles
 SCF Done:  E(RwB97XD) =  -1285.60823806     A.U. after   13 cycles
 SCF Done:  E(RwB97XD) =  -1285.62721939     A.U. after   10 cycles
 SCF Done:  E(RwB97XD) =  -1285.62721030     A.U. after   11 cycles
 SCF Done:  E(RwB97XD) =  -1285.62722533     A.U. after   11 cycles
 SCF Done:  E(RwB97XD) =  -1285.62721776     A.U. after   10 cycles
 SCF Done:  E(RwB97XD) =  -1285.62721964     A.U. after   10 cycles
 SCF Done:  E(RwB97XD) =  -1285.62722374     A.U. after   10 cycles
 SCF Done:  E(RwB97XD) =  -1285.62722669     A.U. after   10 cycles
 SCF Done:  E(RwB97XD) =  -1285.62722655     A.U. after    8 cycles
 SCF Done:  E(RwB97XD) =  -1285.62722664     A.U. after    7 cycles
 Optimization completed.
    -- Stationary point found.
 Normal termination of Gaussian 16 at Mon Apr 12 19:33:34 2021.

 ---------------------------------------------------------------------
 #N Geom=AllCheck Guess=TCheck SCRF=Check GenChk RwB97XD/def2TZVP Freq
 ---------------------------------------------------------------------

 Structure from the checkpoint file:  "/beegfs/scratch/user/q/tla25/Gau-102999.chk"
 ------------------------
 0_iteration/TS-978-0.out
 ------------------------
 Charge =  0 Multiplicity = 1

                         Standard orientation:
 ---------------------------------------------------------------------
 Center     Atomic      Atomic             Coordinates (Angstroms)
 Number     Number       Type             X           Y           Z
 ---------------------------------------------------------------------
      1          6           0        0.648091    0.595115    0.367033
      2          6           0        1.972885    0.112159    0.086877
      3          8           0        2.969120    0.804357    0.340979
      4          6           0       -0.521166   -0.161110    0.221645
      5          6           0       -0.946972    0.979632   -2.232461
      6          1           0       -1.129509    0.849695   -3.297411
      7          1           0       -1.643159    1.710333   -1.827772
      8          1           0        0.075507    1.322256   -2.076115
      9          7           0       -1.113903   -0.286355   -1.523856
     10          1           0       -2.080880   -0.595658   -1.508924
     11          1           0       -0.560886   -1.020535   -1.953589
     12         17           0       -1.986771    0.546957    0.936325
     13         17           0       -0.534603   -1.912702    0.586617
     14          6           0        0.538731    2.042961    0.796717
     15          1           0       -0.237504    2.584547    0.254442
     16          1           0        0.323598    2.148411    1.864218
     17          1           0        1.490822    2.531681    0.603455
     18          6           0        2.248221   -1.236893   -0.555041
     19          1           0        1.490575   -1.568077   -1.261650
     20          1           0        3.203656   -1.161642   -1.071137
     21          1           0        2.336762   -2.004900    0.214998
 ---------------------------------------------------------------------

 SCF Done:  E(RwB97XD) =  -1285.62722664     A.U. after    1 cycles

 The electronic state is 1-A.
 Alpha  occ. eigenvalues -- -101.71101-101.70865 -19.20117 -14.51251 -10.45639
 Alpha  occ. eigenvalues --  -10.35382 -10.32572 -10.27290 -10.26903 -10.26718
 Alpha  occ. eigenvalues --   -9.59704  -9.59477  -7.34368  -7.34136  -7.33475
 Alpha  occ. eigenvalues --   -7.33433  -7.33243  -7.33213  -1.10957  -1.07231
 Alpha  occ. eigenvalues --   -1.00545  -0.93459  -0.87842  -0.82500  -0.80299
 Alpha  occ. eigenvalues --   -0.76550  -0.69644  -0.65463  -0.60818  -0.59507
 Alpha  occ. eigenvalues --   -0.56991  -0.55867  -0.54985  -0.51803  -0.50331
 Alpha  occ. eigenvalues --   -0.49560  -0.48942  -0.48181  -0.48054  -0.45653
 Alpha  occ. eigenvalues --   -0.44227  -0.42699  -0.42338  -0.41507  -0.39859
 Alpha  occ. eigenvalues --   -0.39009  -0.32031  -0.27604
 Alpha virt. eigenvalues --    0.04166   0.05509   0.08670   0.09814   0.13094
 Alpha virt. eigenvalues --    0.14178   0.15002   0.15857   0.16789   0.17790
 Alpha virt. eigenvalues --    0.18895   0.20149   0.20733   0.21676   0.22636

 Mulliken charges:
               1
     1  C   -0.243417
     2  C    0.246329
     3  O   -0.523460
     4  C    0.126342
     5  C   -0.310213
     6  H    0.173834
     7  H    0.168545
     8  H    0.168071
     9  N   -0.270163
    10  H    0.301986
    11  H    0.288926
    12  Cl  -0.067949
    13  Cl  -0.072816
    14  C   -0.381043
    15  H    0.126364
    16  H    0.124926
    17  H    0.130782
    18  C   -0.360445
    19  H    0.097417
    20  H    0.127623
    21  H    0.148362
 Sum of Mulliken charges =  -0.00000

 Dipole moment (field-independent basis, Debye):
    X=             -7.6619    Y=             -2.4013    Z=             -7.0451  Tot=             10.6820
 Quadrupole moment (field-independent basis, Debye-Ang):
   XX=            -89.8798   YY=            -74.6145   ZZ=            -65.1993
   XY=             -7.5219   XZ=              3.2145   YZ=              0.2085

  Exact polarizability: 192.173   6.310 151.440   6.416   5.552 134.578
 Approx polarizability: 152.756   6.176 127.975   4.452   4.191 115.618

 ******    1 imaginary frequencies (negative Signs) ******

                      1                      2                      3
                      A                      A                      A
 Frequencies --   -374.0776                57.1909                77.3336
 Red. masses --      5.9887                 2.8811                 4.4192
 Frc consts  --      0.4937                 0.0056                 0.0156
 IR Inten    --    913.8819                 0.1892                 7.0413

                      4                      5                      6
                      A                      A                      A
 Frequencies --     86.4843               123.3778               162.9972
 Red. masses --      2.5643                 1.2456                 3.2687
 Frc consts  --      0.0113                 0.0112                 0.0512
 IR Inten    --     10.1307                 1.0206                 1.8065

                      7                      8                      9
                      A                      A                      A
 Frequencies --    188.7297               198.9295               224.0047
 Red. masses --      1.2472                 2.6132                 1.4902
 Frc consts  --      0.0262                 0.0609                 0.0441
 IR Inten    --      1.1808                 3.3990                 1.0501

                     10                     11                     12
                      A                      A                      A
 Frequencies --    236.1249               270.5979               284.2191
 Red. masses --      2.3776                 6.6692                 5.1735
 Frc consts  --      0.0781                 0.2877                 0.2462
 IR Inten    --      2.9908                 9.5422                 1.1223

                     13                     14                     15
                      A                      A                      A
 Frequencies --    318.5387               333.9100               376.6529
 Red. masses --      3.4957                 3.6799                 3.5680
 Frc consts  --      0.2090                 0.2417                 0.2982
 IR Inten    --     11.1636                42.7412                 7.1475

                     16                     17                     18
                      A                      A                      A
 Frequencies --    426.2021               481.0244               549.1524
 Red. masses --     10.4148                 3.9334                 4.8853
 Frc consts  --      1.1146                 0.5362                 0.8680
 IR Inten    --     16.8383                54.8759               120.5328

                     19                     20                     21
                      A                      A                      A
 Frequencies --    615.8799               647.9758               701.9255
 Red. masses --      3.2022                 2.8649                 1.7176
 Frc consts  --      0.7156                 0.7087                 0.4986
 IR Inten    --     21.6775                57.1481                16.0525

                     22                     23                     24
                      A                      A                      A
 Frequencies --    818.0660               840.5858               974.6979
 Red. masses --      4.8005                 2.7820                 1.9739
 Frc consts  --      1.8928                 1.1582                 1.1049
 IR Inten    --    172.4875               128.0126                 7.2182

                     25                     26                     27
                      A                      A                      A
 Frequencies --   1000.1375              1033.1486              1037.4157
 Red. masses --      1.3633                 1.3925                 1.6810
 Frc consts  --      0.8035                 0.8757                 1.0659
 IR Inten    --    292.7227               221.3869                12.0974

                     28                     29                     30
                      A                      A                      A
 Frequencies --   1060.3049              1069.0192              1088.4034
 Red. masses --      1.4564                 1.5099                 2.4015
 Frc consts  --      0.9647                 1.0167                 1.6762
 IR Inten    --     19.0584                 4.5913               106.5699

                     31                     32                     33
                      A                      A                      A
 Frequencies --   1123.3236              1252.0228              1341.4964
 Red. masses --      2.3972                 1.3642                 1.3458
 Frc consts  --      1.7822                 1.2600                 1.4270
 IR Inten    --      6.0604                49.9958                36.6778

                     34                     35                     36
                      A                      A                      A
 Frequencies --   1359.7936              1375.1260              1396.7704
 Red. masses --      2.8471                 4.6572                 1.4653
 Frc consts  --      3.1017                 5.1887                 1.6843
 IR Inten    --    817.6719               448.6467               177.6848

                     37                     38                     39
                      A                      A                      A
 Frequencies --   1401.1109              1453.3286              1464.0978
 Red. masses --      1.3461                 1.1942                 1.0911
 Frc consts  --      1.5569                 1.4861                 1.3780
 IR Inten    --    112.3146                 8.2785                17.3031

                     40                     41                     42
                      A                      A                      A
 Frequencies --   1479.5954              1491.2981              1494.9620
 Red. masses --      1.0584                 1.0717                 1.0439
 Frc consts  --      1.3651                 1.4042                 1.3745
 IR Inten    --     25.5372                13.2911                 0.7492

                     43                     44                     45
                      A                      A                      A
 Frequencies --   1497.3707              1503.3091              1625.3394
 Red. masses --      1.0503                 1.0543                 7.5763
 Frc consts  --      1.3874                 1.4038                11.7922
 IR Inten    --     39.7185                92.8858               732.3601

                     46                     47                     48
                      A                      A                      A
 Frequencies --   1639.0662              3038.7155              3072.8857
 Red. masses --      1.1085                 1.0452                 1.0379
 Frc consts  --      1.7546                 5.6864                 5.7741
 IR Inten    --     41.6558                79.5288                10.9459

                     49                     50                     51
                      A                      A                      A
 Frequencies --   3078.6517              3100.4371              3147.0188
 Red. masses --      1.0328                 1.0948                 1.0990
 Frc consts  --      5.7674                 6.2004                 6.4128
 IR Inten    --     18.4952                43.2696                17.1593

                     52                     53                     54
                      A                      A                      A
 Frequencies --   3157.6630              3163.3383              3168.5097
 Red. masses --      1.0976                 1.1048                 1.1024
 Frc consts  --      6.4478                 6.5134                 6.5206
 IR Inten    --      9.3808                 2.0619                42.0377

                     55                     56                     57
                      A                      A                      A
 Frequencies --   3180.4059              3509.2706              3591.7429
 Red. masses --      1.1068                 1.0510                 1.0969
 Frc consts  --      6.5960                 7.6262                 8.3371
 IR Inten    --      6.8965                69.8310                73.0525

 - Thermochemistry -
 -------------------
 Temperature   298.150 Kelvin.  Pressure   1.00000 Atm.
 Atom     1 has atomic number  6 and mass  12.00000

 Molecular mass:   183.02177 amu.
 Principal axes and moments of inertia in atomic units:
                           1         2         3
     Eigenvalues --  1598.402952310.074402616.36717
           X            0.99855  -0.04390   0.03099
           Y            0.04277   0.99843   0.03629
           Z           -0.03254  -0.03491   0.99886
 This molecule is an asymmetric top.
 Rotational symmetry number  1.
 Warning -- assumption of classical behavior for rotation
           may cause significant error
 Rotational temperatures (Kelvin)      0.05419     0.03749     0.03310
 Rotational constants (GHZ):           1.12909     0.78125     0.68979
    1 imaginary frequencies ignored.
 Zero-point vibrational energy     438967.8 (Joules/Mol)
                                  104.91582 (Kcal/Mol)
 Warning -- explicit consideration of  18 degrees of freedom as
           vibrations may cause significant error
 Vibrational temperatures:     82.28   111.27   124.43   177.51   234.52
          (Kelvin)            271.54   286.22   322.29   339.73   389.33
                              408.93   458.31   480.42   541.92   613.21
                              692.09   790.11   886.11   932.29  1009.91
                             1177.01  1209.42  1402.37  1438.97  1486.47
                             1492.61  1525.54  1538.08  1565.97  1616.21
                             1801.38  1930.11  1956.44  1978.50  2009.64
                             2015.89  2091.02  2106.51  2128.81  2145.65
                             2150.92  2154.38  2162.93  2338.50  2358.25
                             4372.03  4421.20  4429.49  4460.84  4527.86
                             4543.17  4551.34  4558.78  4575.89  5049.06
                             5167.72

 Zero-point correction=                           0.167194 (Hartree/Particle)
 Thermal correction to Energy=                    0.179476
 Thermal correction to Enthalpy=                  0.180420
 Thermal correction to Gibbs Free Energy=         0.128495
 Sum of electronic and zero-point Energies=          -1285.460033
 Sum of electronic and thermal Energies=             -1285.447751
 Sum of electronic and thermal Enthalpies=           -1285.446806
 Sum of electronic and thermal Free Energies=        -1285.498731

                     E (Thermal)             CV                S
                      KCal/Mol        Cal/Mol-Kelvin    Cal/Mol-Kelvin
 Total                  112.623             43.009            109.285
 Electronic               0.000              0.000              0.000
 Translational            0.889              2.981             41.520
 Rotational               0.889              2.981             30.647
 Vibrational            110.845             37.048             37.119
 Vibration     1          0.596              1.975              4.552
 Vibration     2          0.599              1.964              3.957
 Vibration     3          0.601              1.959              3.738
 Vibration     4          0.610              1.930              3.047
 Vibration     5          0.623              1.888              2.515
 Vibration     6          0.633              1.855              2.240
 Vibration     7          0.637              1.841              2.143
 Vibration     8          0.649              1.805              1.926
 Vibration     9          0.655              1.785              1.832
 Vibration    10          0.674              1.727              1.592
 Vibration    11          0.683              1.703              1.508
 Vibration    12          0.705              1.638              1.318
 Vibration    13          0.715              1.608              1.241
 Vibration    14          0.747              1.520              1.053
 Vibration    15          0.788              1.413              0.871
 Vibration    16          0.837              1.292              0.707
 Vibration    17          0.904              1.142              0.546
 Vibration    18          0.975              0.998              0.423

 Optimization completed.
    -- Stationary point found.
 Normal termination of Gaussian 16 at Mon Apr 12 19:40:18 2021.
