 Gaussian 16, Revision A.03,
 Gaussian 16:  ES64L-G16RevA.03 25-Dec-2016

 ----------------------------------------------------------------------
 # wB97XD def2tzvp, opt=(ts, noeigen, calcfc, maxcycles=70, maxstep=8),
  freq=noraman, scrf=(iefpcm, solvent=water)
 ----------------------------------------------------------------------

 ------------------------
 1_iteration/TS-931-1.out
 ------------------------
 Symbolic Z-matrix:
 Charge =  0 Multiplicity = 1

 SCF Done:  E(RwB97XD) =  -3376.39053208     A.U. after   15 cycles
 SCF Done:  E(RwB97XD) =  -3376.39088099     A.U. after   12 cycles
 SCF Done:  E(RwB97XD) =  -3376.39089854     A.U. after   10 cycles
 SCF Done:  E(RwB97XD) =  -3376.39090127     A.U. after   10 cycles
 SCF Done:  E(RwB97XD) =  -3376.39090132     A.U. after    8 cycles
 Optimization completed.
    -- Stationary point found.
 Normal termination of Gaussian 16 at Sun Feb 28 13:27:22 2021.

 ---------------------------------------------------------------------
 #N Geom=AllCheck Guess=TCheck SCRF=Check GenChk RwB97XD/def2TZVP Freq
 ---------------------------------------------------------------------

 Structure from the checkpoint file:  "/beegfs/scratch/user/q/tla25/Gau-93462.chk"
 ------------------------
 1_iteration/TS-931-1.out
 ------------------------
 Charge =  0 Multiplicity = 1

                         Standard orientation:
 ---------------------------------------------------------------------
 Center     Atomic      Atomic             Coordinates (Angstroms)
 Number     Number       Type             X           Y           Z
 ---------------------------------------------------------------------
      1          6           0       -0.976080    0.344545   -0.889605
      2          6           0       -2.088011   -0.278863   -0.201796
      3          8           0       -2.010822   -0.731399    0.948516
      4          6           0        0.300814    0.291186   -0.401472
      5          6           0       -0.193053    2.508944    1.300690
      6          1           0       -0.588196    2.850053    2.257859
      7          1           0        0.592532    3.185918    0.972549
      8          1           0       -1.002526    2.515442    0.565183
      9          7           0        0.327309    1.156920    1.380428
     10          1           0        1.232916    1.095892    1.828732
     11          1           0       -0.328268    0.522892    1.829362
     12         17           0        1.498753    1.229820   -1.259290
     13         35           0        1.074406   -1.391746    0.226708
     14          1           0       -1.171926    1.014182   -1.714319
     15          7           0       -3.270233   -0.292520   -0.869733
     16          1           0       -3.327455   -0.049396   -1.841298
     17          1           0       -4.065069   -0.725311   -0.434808
 ---------------------------------------------------------------------

 SCF Done:  E(RwB97XD) =  -3376.39090132     A.U. after    1 cycles

 The electronic state is 1-A.
 Alpha  occ. eigenvalues -- -483.13339-101.71291 -62.68192 -56.47317 -56.46946
 Alpha  occ. eigenvalues --  -56.46936 -19.20813 -14.47794 -14.44300 -10.43824
 Alpha  occ. eigenvalues --  -10.38634 -10.31401 -10.26723  -9.59862  -8.82304
 Alpha  occ. eigenvalues --   -7.34533  -7.33627  -7.33598  -6.64484  -6.63310
 Alpha  occ. eigenvalues --   -6.63277  -2.74861  -2.74533  -2.74505  -2.73557
 Alpha  occ. eigenvalues --   -2.73557  -1.13232  -1.03909  -0.99916  -0.99068
 Alpha  occ. eigenvalues --   -0.89330  -0.84752  -0.78506  -0.72144  -0.64965
 Alpha  occ. eigenvalues --   -0.62967  -0.61047  -0.58734  -0.57179  -0.54829
 Alpha  occ. eigenvalues --   -0.53076  -0.51400  -0.49668  -0.48177  -0.47577
 Alpha  occ. eigenvalues --   -0.46271  -0.41743  -0.40158  -0.37616  -0.36920
 Alpha  occ. eigenvalues --   -0.35286  -0.34436  -0.29023
 Alpha virt. eigenvalues --    0.02638   0.04999   0.09408   0.11256   0.13209
 Alpha virt. eigenvalues --    0.14472   0.16514   0.17317   0.17638   0.19180
 Alpha virt. eigenvalues --    0.20512   0.20704   0.21826   0.23268   0.24768

 Mulliken charges:
               1
     1  C   -0.537141
     2  C    0.381731
     3  O   -0.544055
     4  C    0.230983
     5  C   -0.281457
     6  H    0.153896
     7  H    0.153821
     8  H    0.145060
     9  N   -0.357692
    10  H    0.286378
    11  H    0.278023
    12  Cl  -0.064790
    13  Br  -0.093754
    14  H    0.170442
    15  N   -0.473262
    16  H    0.281964
    17  H    0.269854
 Sum of Mulliken charges =   0.00000

 Dipole moment (field-independent basis, Debye):
    X=             -0.6256    Y=              4.5405    Z=              0.2073  Tot=              4.5881
 Quadrupole moment (field-independent basis, Debye-Ang):
   XX=            -65.2924   YY=            -70.3277   ZZ=            -67.5959
   XY=             -0.0809   XZ=             11.9592   YZ=              5.6982

  Exact polarizability: 164.939   5.945 143.194  11.860  -0.940 136.692
 Approx polarizability: 128.749   3.845 117.426   8.047  -5.220 119.685

 ******    1 imaginary frequencies (negative Signs) ******

                      1                      2                      3
                      A                      A                      A
 Frequencies --   -401.9160                69.5144                79.4744
 Red. masses --      4.9717                 5.0575                 4.8925
 Frc consts  --      0.4732                 0.0144                 0.0182
 IR Inten    --    569.4763                11.2374                23.2714

                      4                      5                      6
                      A                      A                      A
 Frequencies --    108.1046               126.3223               149.4304
 Red. masses --      2.1549                 6.0477                 1.2535
 Frc consts  --      0.0148                 0.0569                 0.0165
 IR Inten    --     11.4392                16.5322               335.7792

                      7                      8                      9
                      A                      A                      A
 Frequencies --    159.0452               195.3985               211.4658
 Red. masses --      4.0165                 1.2589                14.7916
 Frc consts  --      0.0599                 0.0283                 0.3897
 IR Inten    --     24.2707                 3.9390                 8.4392

                     10                     11                     12
                      A                      A                      A
 Frequencies --    258.8335               275.6316               312.7666
 Red. masses --      4.8630                 3.3797                 7.1251
 Frc consts  --      0.1920                 0.1513                 0.4107
 IR Inten    --     11.1736                13.0863                12.2043

                     13                     14                     15
                      A                      A                      A
 Frequencies --    354.0630               446.8215               527.7271
 Red. masses --      7.7389                 3.6241                 1.1209
 Frc consts  --      0.5716                 0.4263                 0.1839
 IR Inten    --     15.4757                48.2227                29.8312

                     16                     17                     18
                      A                      A                      A
 Frequencies --    564.4679               626.0558               662.7616
 Red. masses --      2.0138                 2.8798                 1.2666
 Frc consts  --      0.3780                 0.6650                 0.3278
 IR Inten    --     39.6558                74.6241                81.2319

                     19                     20                     21
                      A                      A                      A
 Frequencies --    696.6981               793.1346               860.5364
 Red. masses --      2.8315                 7.3582                 5.6908
 Frc consts  --      0.8098                 2.7272                 2.4829
 IR Inten    --    117.1812                66.2763               140.0231

                     22                     23                     24
                      A                      A                      A
 Frequencies --    972.0457               986.4845              1046.6269
 Red. masses --      2.3410                 1.1861                 1.1298
 Frc consts  --      1.3032                 0.6800                 0.7292
 IR Inten    --     46.6404               100.9941                94.4233

                     25                     26                     27
                      A                      A                      A
 Frequencies --   1091.7477              1099.6573              1193.4261
 Red. masses --      4.0267                 2.2491                 1.4139
 Frc consts  --      2.8278                 1.6024                 1.1865
 IR Inten    --     36.6624                35.8875                20.0104

                     28                     29                     30
                      A                      A                      A
 Frequencies --   1245.6673              1343.8959              1383.9517
 Red. masses --      1.3723                 1.3395                 4.1096
 Frc consts  --      1.2546                 1.4254                 4.6375
 IR Inten    --    454.3089                 3.1422                63.8392

                     31                     32                     33
                      A                      A                      A
 Frequencies --   1455.7248              1488.4338              1493.5993
 Red. masses --      1.2318                 1.1124                 2.9767
 Frc consts  --      1.5380                 1.4520                 3.9124
 IR Inten    --    135.8211               131.3774              1039.0333

                     34                     35                     36
                      A                      A                      A
 Frequencies --   1505.2984              1618.4117              1634.9896
 Red. masses --      1.0538                 1.3474                 1.1678
 Frc consts  --      1.4069                 2.0793                 1.8393
 IR Inten    --      3.8481               157.3832               244.8489

                     37                     38                     39
                      A                      A                      A
 Frequencies --   1672.9496              3048.3089              3121.0645
 Red. masses --      3.9927                 1.0376                 1.0998
 Frc consts  --      6.5839                 5.6806                 6.3119
 IR Inten    --    460.2965                44.0577                13.5406

                     40                     41                     42
                      A                      A                      A
 Frequencies --   3164.9012              3226.7122              3487.0960
 Red. masses --      1.1041                 1.0900                 1.0553
 Frc consts  --      6.5160                 6.6862                 7.5608
 IR Inten    --     14.3674                 0.4683                49.6823

                     43                     44                     45
                      A                      A                      A
 Frequencies --   3605.9923              3631.3424              3760.9688
 Red. masses --      1.0935                 1.0454                 1.1056
 Frc consts  --      8.3777                 8.1219                 9.2141
 IR Inten    --    102.8401               111.3924                75.9109

 - Thermochemistry -
 -------------------
 Temperature   298.150 Kelvin.  Pressure   1.00000 Atm.
 Atom     1 has atomic number  6 and mass  12.00000

 Molecular mass:   213.95085 amu.
 Principal axes and moments of inertia in atomic units:
                           1         2         3
     Eigenvalues --  1788.977322298.642492936.97634
           X            0.99729   0.06590   0.03280
           Y           -0.06881   0.99287   0.09737
           Z           -0.02615  -0.09936   0.99471
 This molecule is an asymmetric top.
 Rotational symmetry number  1.
 Warning -- assumption of classical behavior for rotation
           may cause significant error
 Rotational temperatures (Kelvin)      0.04842     0.03768     0.02949
 Rotational constants (GHZ):           1.00881     0.78513     0.61449
    1 imaginary frequencies ignored.
 Zero-point vibrational energy     333504.2 (Joules/Mol)
                                   79.70942 (Kcal/Mol)
 Warning -- explicit consideration of  15 degrees of freedom as
           vibrations may cause significant error
 Vibrational temperatures:    100.02   114.35   155.54   181.75   215.00
          (Kelvin)            228.83   281.13   304.25   372.40   396.57
                              450.00   509.42   642.88   759.28   812.14
                              900.75   953.57  1002.39  1141.14  1238.12
                             1398.56  1419.33  1505.86  1570.78  1582.16
                             1717.07  1792.24  1933.57  1991.20  2094.46
                             2141.52  2148.96  2165.79  2328.53  2352.39
                             2407.00  4385.84  4490.52  4553.59  4642.52
                             5017.15  5188.22  5224.69  5411.20

 Zero-point correction=                           0.127025 (Hartree/Particle)
 Thermal correction to Energy=                    0.138324
 Thermal correction to Enthalpy=                  0.139268
 Thermal correction to Gibbs Free Energy=         0.088734
 Sum of electronic and zero-point Energies=          -3376.263876
 Sum of electronic and thermal Energies=             -3376.252578
 Sum of electronic and thermal Enthalpies=           -3376.251633
 Sum of electronic and thermal Free Energies=        -3376.302167

                     E (Thermal)             CV                S
                      KCal/Mol        Cal/Mol-Kelvin    Cal/Mol-Kelvin
 Total                   86.799             38.284            106.358
 Electronic               0.000              0.000              0.000
 Translational            0.889              2.981             41.985
 Rotational               0.889              2.981             30.869
 Vibrational             85.022             32.322             33.504
 Vibration     1          0.598              1.969              4.167
 Vibration     2          0.600              1.963              3.904
 Vibration     3          0.606              1.943              3.303
 Vibration     4          0.611              1.927              3.001
 Vibration     5          0.618              1.903              2.679
 Vibration     6          0.621              1.892              2.561
 Vibration     7          0.636              1.846              2.176
 Vibration     8          0.643              1.823              2.031
 Vibration     9          0.668              1.748              1.670
 Vibration    10          0.677              1.718              1.561
 Vibration    11          0.701              1.649              1.348
 Vibration    12          0.730              1.567              1.148
 Vibration    13          0.806              1.368              0.805
 Vibration    14          0.883              1.189              0.592
 Vibration    15          0.920              1.108              0.515

 Optimization completed.
    -- Stationary point found.
 Normal termination of Gaussian 16 at Sun Feb 28 13:38:15 2021.
