 Gaussian 16, Revision A.03,
 Gaussian 16:  ES64L-G16RevA.03 25-Dec-2016

 ----------------------------------------------------------------------
 # wB97XD def2tzvp, opt=(ts, noeigen, calcfc, maxcycles=70, maxstep=3),
  freq=noraman, scrf=(iefpcm, solvent=water)
 ----------------------------------------------------------------------

 ------------------------
 3_iteration/TS-927-3.out
 ------------------------
 Symbolic Z-matrix:
 Charge =  0 Multiplicity = 1

 SCF Done:  E(RwB97XD) =  -3838.48810754     A.U. after   15 cycles
 SCF Done:  E(RwB97XD) =  -3838.48811427     A.U. after   10 cycles
 SCF Done:  E(RwB97XD) =  -3838.48811443     A.U. after    8 cycles
 SCF Done:  E(RwB97XD) =  -3838.48811443     A.U. after    6 cycles
 Optimization completed.
    -- Stationary point found.
 Normal termination of Gaussian 16 at Mon Mar  1 10:12:01 2021.

 ---------------------------------------------------------------------
 #N Geom=AllCheck Guess=TCheck SCRF=Check GenChk RwB97XD/def2TZVP Freq
 ---------------------------------------------------------------------

 Structure from the checkpoint file:  "/beegfs/scratch/user/q/tla25/Gau-15471.chk"
 ------------------------
 3_iteration/TS-927-3.out
 ------------------------
 Charge =  0 Multiplicity = 1

                         Standard orientation:
 ---------------------------------------------------------------------
 Center     Atomic      Atomic             Coordinates (Angstroms)
 Number     Number       Type             X           Y           Z
 ---------------------------------------------------------------------
      1          6           0        0.688748    0.179611   -0.003194
      2          6           0       -0.554805   -0.582011    0.111486
      3          8           0       -0.593255   -1.745469    0.518241
      4          6           0        1.876233   -0.517072    0.008199
      5          6           0        1.921364   -0.584875    2.878892
      6          1           0        1.658233   -1.104282    3.801286
      7          1           0        2.861422   -0.055486    3.019947
      8          1           0        1.136390    0.139090    2.652713
      9          7           0        2.034060   -1.494579    1.755904
     10          1           0        2.864341   -2.072753    1.783268
     11          1           0        1.202908   -2.068338    1.642434
     12         17           0        3.367686    0.384543    0.024725
     13         35           0        2.100870   -2.134946   -1.077738
     14          6           0        0.642912    1.668686   -0.047185
     15          6           0        0.155150    2.410639    1.029145
     16          6           0        0.071180    3.793035    0.964238
     17          6           0        0.477403    4.462038   -0.181535
     18          6           0        0.957013    3.738262   -1.263781
     19          6           0        1.030510    2.355235   -1.198314
     20          1           0       -0.169704    1.897621    1.926364
     21          1           0       -0.308905    4.348431    1.812390
     22          1           0        0.415295    5.541660   -0.232579
     23          1           0        1.267226    4.250703   -2.165759
     24          1           0        1.393025    1.793020   -2.050145
     25          7           0       -1.687480    0.101607   -0.248196
     26          6           0       -3.031027   -0.271960   -0.142260
     27          6           0       -3.466111   -1.510760    0.329346
     28          6           0       -4.826418   -1.780075    0.397330
     29          6           0       -5.767118   -0.842657    0.001958
     30          6           0       -5.332030    0.389179   -0.469551
     31          6           0       -3.981051    0.673428   -0.540637
     32          1           0       -1.534876    1.032299   -0.600610
     33          1           0       -2.743753   -2.249147    0.634944
     34          1           0       -5.148914   -2.746036    0.766219
     35          1           0       -6.824350   -1.066596    0.058062
     36          1           0       -6.048775    1.137204   -0.784354
     37          1           0       -3.652415    1.638825   -0.908371
 ---------------------------------------------------------------------

 SCF Done:  E(RwB97XD) =  -3838.48811443     A.U. after    1 cycles

 The electronic state is 1-A.
 Alpha  occ. eigenvalues -- -483.13340-101.71417 -62.68180 -56.47309 -56.46936
 Alpha  occ. eigenvalues --  -56.46926 -19.21904 -14.47387 -14.47027 -10.44053
 Alpha  occ. eigenvalues --  -10.39675 -10.34046 -10.31415 -10.30766 -10.29261
 Alpha  occ. eigenvalues --  -10.29214 -10.29181 -10.29177 -10.29148 -10.29111
 Alpha  occ. eigenvalues --  -10.29034 -10.29023 -10.28538 -10.28416 -10.28412
 Alpha  occ. eigenvalues --   -9.59990  -8.82282  -7.34663  -7.33760  -7.33719
 Alpha  occ. eigenvalues --   -6.64465  -6.63287  -6.63252  -2.74841  -2.74512
 Alpha  occ. eigenvalues --   -2.74484  -2.73532  -2.73532  -1.14773  -1.04796
 Alpha  occ. eigenvalues --   -1.03674  -0.99647  -0.96865  -0.95690  -0.90076
 Alpha  occ. eigenvalues --   -0.88348  -0.85338  -0.85299  -0.84926  -0.82219
 Alpha  occ. eigenvalues --   -0.78441  -0.74664  -0.71795  -0.70648  -0.70582
 Alpha  occ. eigenvalues --   -0.67900  -0.65063  -0.63091  -0.62745  -0.61942
 Alpha  occ. eigenvalues --   -0.58701  -0.57919  -0.57093  -0.55893  -0.54826
 Alpha  occ. eigenvalues --   -0.54165  -0.53651  -0.53257  -0.52540  -0.51982
 Alpha  occ. eigenvalues --   -0.51585  -0.51050  -0.50550  -0.49208  -0.47678
 Alpha  occ. eigenvalues --   -0.47173  -0.46968  -0.46479  -0.44871  -0.43844
 Alpha  occ. eigenvalues --   -0.43054  -0.42960  -0.41624  -0.40356  -0.39922
 Alpha  occ. eigenvalues --   -0.37219  -0.36817  -0.35756  -0.33993  -0.33881
 Alpha  occ. eigenvalues --   -0.33321  -0.30963  -0.27762
 Alpha virt. eigenvalues --    0.01245   0.03037   0.05048   0.05284   0.05417
 Alpha virt. eigenvalues --    0.07555   0.09869   0.10890   0.12434   0.13138
 Alpha virt. eigenvalues --    0.14119   0.14434   0.15585   0.16106   0.16340

 Mulliken charges:
               1
     1  C   -0.340539
     2  C    0.480759
     3  O   -0.550347
     4  C    0.229395
     5  C   -0.265669
     6  H    0.154660
     7  H    0.152284
     8  H    0.121811
     9  N   -0.354199
    10  H    0.282948
    11  H    0.278753
    12  Cl  -0.042940
    13  Br  -0.089806
    14  C    0.048533
    15  C   -0.234980
    16  C   -0.140327
    17  C   -0.132317
    18  C   -0.141088
    19  C   -0.220775
    20  H    0.160096
    21  H    0.143088
    22  H    0.145431
    23  H    0.142846
    24  H    0.145765
    25  N   -0.250917
    26  C    0.299550
    27  C   -0.294540
    28  C   -0.110798
    29  C   -0.193706
    30  C   -0.097166
    31  C   -0.318224
    32  H    0.259178
    33  H    0.162190
    34  H    0.142110
    35  H    0.141523
    36  H    0.144289
    37  H    0.143130
 Sum of Mulliken charges =  -0.00000

 Dipole moment (field-independent basis, Debye):
    X=              1.6516    Y=              2.7408    Z=              3.4829  Tot=              4.7297
 Quadrupole moment (field-independent basis, Debye-Ang):
   XX=           -136.1993   YY=           -132.5211   ZZ=           -132.0202
   XY=             -8.1683   XZ=              8.9525   YZ=             -8.9873

  Exact polarizability: 393.066 -14.891 371.948  -2.424 -21.527 284.175
 Approx polarizability: 291.507  -6.923 302.092  -5.837 -17.625 243.416

 ******    1 imaginary frequencies (negative Signs) ******

                      1                      2                      3
                      A                      A                      A
 Frequencies --   -391.8606                25.0729                27.7512
 Red. masses --      5.8322                 4.2408                 5.4612
 Frc consts  --      0.5276                 0.0016                 0.0025
 IR Inten    --    798.5004                 0.5166                 0.4767

                      4                      5                      6
                      A                      A                      A
 Frequencies --     34.3472                45.7879                61.2687
 Red. masses --      4.1684                 5.0045                 5.5815
 Frc consts  --      0.0029                 0.0062                 0.0123
 IR Inten    --      0.0409                 0.2550                 3.9845

                      7                      8                      9
                      A                      A                      A
 Frequencies --     74.7800                87.9908                91.9766
 Red. masses --      2.4962                 6.3369                 5.1106
 Frc consts  --      0.0082                 0.0289                 0.0255
 IR Inten    --      1.9969                 2.5259                 3.5753

                     10                     11                     12
                      A                      A                      A
 Frequencies --    129.8042               139.3164               161.8076
 Red. masses --      4.0091                 3.4659                 1.9949
 Frc consts  --      0.0398                 0.0396                 0.0308
 IR Inten    --     27.1322                 2.1760                 0.4419

                     13                     14                     15
                      A                      A                      A
 Frequencies --    185.7632               199.5649               210.1612
 Red. masses --      5.5619                 5.5134                 3.1444
 Frc consts  --      0.1131                 0.1294                 0.0818
 IR Inten    --      1.4352                 9.4106                 0.2243

                     16                     17                     18
                      A                      A                      A
 Frequencies --    226.8378               246.6080               257.9212
 Red. masses --      6.9134                 4.9922                 4.4674
 Frc consts  --      0.2096                 0.1789                 0.1751
 IR Inten    --     15.0768                 3.9188                12.5873

                     19                     20                     21
                      A                      A                      A
 Frequencies --    262.4024               306.1427               363.1155
 Red. masses --      4.5972                 7.7201                 6.6482
 Frc consts  --      0.1865                 0.4263                 0.5165
 IR Inten    --     24.3820                16.2631                 5.2934

                     22                     23                     24
                      A                      A                      A
 Frequencies --    374.6296               398.2507               423.3485
 Red. masses --      6.6674                 7.1952                 2.9813
 Frc consts  --      0.5513                 0.6724                 0.3148
 IR Inten    --     34.6609                 4.1533                 0.0839

                     25                     26                     27
                      A                      A                      A
 Frequencies --    423.7048               510.7992               522.1268
 Red. masses --      2.8654                 4.4915                 3.4362
 Frc consts  --      0.3031                 0.6905                 0.5519
 IR Inten    --      0.1522                55.1243                17.7283

                     28                     29                     30
                      A                      A                      A
 Frequencies --    542.0739               575.9545               601.1710
 Red. masses --      4.4133                 5.2131                 1.1642
 Frc consts  --      0.7641                 1.0189                 0.2479
 IR Inten    --     64.0570                55.0621                92.9614

                     31                     32                     33
                      A                      A                      A
 Frequencies --    624.0066               636.5126               637.3380
 Red. masses --      2.0776                 5.4196                 4.8406
 Frc consts  --      0.4766                 1.2937                 1.1585
 IR Inten    --     30.7264                 5.2294                 4.3392

                     34                     35                     36
                      A                      A                      A
 Frequencies --    672.5192               719.5987               726.4665
 Red. masses --      3.7233                 1.8707                 2.1194
 Frc consts  --      0.9922                 0.5707                 0.6590
 IR Inten    --     95.8048                66.1013                26.1601

                     37                     38                     39
                      A                      A                      A
 Frequencies --    732.7799               767.2865               785.7218
 Red. masses --      2.3661                 7.3032                 1.8122
 Frc consts  --      0.7486                 2.5332                 0.6591
 IR Inten    --    218.2187               124.1663                70.2949

                     40                     41                     42
                      A                      A                      A
 Frequencies --    798.7678               811.3510               863.5156
 Red. masses --      6.4800                 2.9357                 1.2576
 Frc consts  --      2.4359                 1.1386                 0.5525
 IR Inten    --     66.0871                68.8528                 0.0878

                     43                     44                     45
                      A                      A                      A
 Frequencies --    878.0194               880.1352               918.3938
 Red. masses --      2.1404                 1.9262                 6.4588
 Frc consts  --      0.9722                 0.8791                 3.2097
 IR Inten    --     21.9972                10.6450                50.0913

                     46                     47                     48
                      A                      A                      A
 Frequencies --    936.7912               961.9731               970.4441
 Red. masses --      1.4675                 1.4305                 1.1210
 Frc consts  --      0.7588                 0.7799                 0.6220
 IR Inten    --     13.0484                 8.9180               130.2823

                     49                     50                     51
                      A                      A                      A
 Frequencies --   1003.4272              1016.6072              1020.6076
 Red. masses --      1.3476                 1.3853                 1.8949
 Frc consts  --      0.7994                 0.8435                 1.1629
 IR Inten    --      0.0344                 1.2948                 2.4188

                     52                     53                     54
                      A                      A                      A
 Frequencies --   1021.1385              1026.2966              1031.3722
 Red. masses --      2.3958                 5.5349                 1.3380
 Frc consts  --      1.4719                 3.4349                 0.8386
 IR Inten    --      2.2292                 2.0597                 4.8490

                     55                     56                     57
                      A                      A                      A
 Frequencies --   1034.8941              1049.5881              1063.6805
 Red. masses --      1.2325                 3.6521                 2.0931
 Frc consts  --      0.7777                 2.3705                 1.3953
 IR Inten    --     71.5108                15.9331                18.7752

                     58                     59                     60
                      A                      A                      A
 Frequencies --   1076.8886              1095.4448              1112.2166
 Red. masses --      2.1479                 4.4588                 1.5601
 Frc consts  --      1.4676                 3.1524                 1.1371
 IR Inten    --     20.1738                40.7309                11.1607

                     61                     62                     63
                      A                      A                      A
 Frequencies --   1123.6225              1183.3072              1183.4081
 Red. masses --      1.5497                 1.1247                 1.1335
 Frc consts  --      1.1528                 0.9279                 0.9353
 IR Inten    --     20.3103                 3.0523                 1.0508

                     64                     65                     66
                      A                      A                      A
 Frequencies --   1185.7347              1210.1952              1210.3159
 Red. masses --      1.4260                 1.1279                 1.1410
 Frc consts  --      1.1813                 0.9733                 0.9848
 IR Inten    --     22.1401                 7.2682                28.3462

                     67                     68                     69
                      A                      A                      A
 Frequencies --   1234.2894              1271.1789              1300.4645
 Red. masses --      4.0123                 2.5850                 4.6797
 Frc consts  --      3.6014                 2.4611                 4.6630
 IR Inten    --     27.3182               754.1839               189.5733

                     70                     71                     72
                      A                      A                      A
 Frequencies --   1313.0192              1345.2367              1347.0650
 Red. masses --      5.2123                 1.3280                 4.0155
 Frc consts  --      5.2945                 1.4159                 4.2930
 IR Inten    --     99.9571                 1.5435               671.8136

                     73                     74                     75
                      A                      A                      A
 Frequencies --   1359.5190              1363.1061              1438.3678
 Red. masses --      1.4489                 1.5457                 2.3232
 Frc consts  --      1.5779                 1.6922                 2.8318
 IR Inten    --      2.2008                26.1477               497.9408

                     76                     77                     78
                      A                      A                      A
 Frequencies --   1462.9116              1481.5840              1486.4556
 Red. masses --      1.6823                 2.1858                 1.0428
 Frc consts  --      2.1213                 2.8269                 1.3576
 IR Inten    --    234.1229               211.1153                19.8075

                     79                     80                     81
                      A                      A                      A
 Frequencies --   1488.5122              1502.7224              1543.5833
 Red. masses --      2.2063                 1.0427                 2.4108
 Frc consts  --      2.8801                 1.3873                 3.3843
 IR Inten    --     32.9276                 3.7191                89.9168

                     82                     83                     84
                      A                      A                      A
 Frequencies --   1547.4906              1575.1013              1632.6898
 Red. masses --      2.4174                 2.0837                 1.1816
 Frc consts  --      3.4108                 3.0458                 1.8557
 IR Inten    --    155.8389               766.0389               171.0532

                     85                     86                     87
                      A                      A                      A
 Frequencies --   1644.3856              1662.1091              1670.9042
 Red. masses --      5.4548                 5.1787                 5.6878
 Frc consts  --      8.6903                 8.4293                 9.3561
 IR Inten    --      5.2652               125.6057                32.8677

                     88                     89                     90
                      A                      A                      A
 Frequencies --   1673.1243              1692.3733              3061.1398
 Red. masses --      4.6451                 5.5310                 1.0336
 Frc consts  --      7.6612                 9.3335                 5.7066
 IR Inten    --     40.7776               406.4279                50.2006

                     91                     92                     93
                      A                      A                      A
 Frequencies --   3129.9723              3162.9869              3188.3284
 Red. masses --      1.1032                 1.1043                 1.0880
 Frc consts  --      6.3678                 6.5095                 6.5164
 IR Inten    --     10.4807                15.2762                12.0653

                     94                     95                     96
                      A                      A                      A
 Frequencies --   3192.5819              3196.1374              3197.8386
 Red. masses --      1.0861                 1.0882                 1.0883
 Frc consts  --      6.5225                 6.5496                 6.5571
 IR Inten    --      6.4221                 0.6238                 1.9697

                     97                     98                     99
                      A                      A                      A
 Frequencies --   3205.1261              3207.5551              3212.1528
 Red. masses --      1.0916                 1.0932                 1.0953
 Frc consts  --      6.6067                 6.6269                 6.6583
 IR Inten    --     12.4310                28.6272                38.5790

                    100                    101                    102
                      A                      A                      A
 Frequencies --   3222.0654              3222.5901              3272.1067
 Red. masses --      1.0980                 1.0989                 1.0926
 Frc consts  --      6.7163                 6.7240                 6.8921
 IR Inten    --     22.3488                18.4285                 5.8721

                    103                    104                    105
                      A                      A                      A
 Frequencies --   3488.2118              3607.4249              3636.1837
 Red. masses --      1.0545                 1.0942                 1.0765
 Frc consts  --      7.5595                 8.3893                 8.3861
 IR Inten    --     62.7794               119.3069                99.3996

 - Thermochemistry -
 -------------------
 Temperature   298.150 Kelvin.  Pressure   1.00000 Atm.
 Atom     1 has atomic number  6 and mass  12.00000

 Molecular mass:   366.01345 amu.
 Principal axes and moments of inertia in atomic units:
                           1         2         3
     Eigenvalues --  6253.80316********************
           X            0.99905   0.04026   0.01677
           Y           -0.03961   0.99852  -0.03720
           Z           -0.01824   0.03650   0.99917
 This molecule is an asymmetric top.
 Rotational symmetry number  1.
 Warning -- assumption of classical behavior for rotation
           may cause significant error
 Rotational temperatures (Kelvin)      0.01385     0.00819     0.00608
 Rotational constants (GHZ):           0.28858     0.17064     0.12671
    1 imaginary frequencies ignored.
 Zero-point vibrational energy     763931.9 (Joules/Mol)
                                  182.58411 (Kcal/Mol)
 Warning -- explicit consideration of  29 degrees of freedom as
           vibrations may cause significant error
 Vibrational temperatures:     36.07    39.93    49.42    65.88    88.15
          (Kelvin)            107.59   126.60   132.33   186.76   200.45
                              232.81   267.27   287.13   302.38   326.37
                              354.81   371.09   377.54   440.47   522.44
                              539.01   572.99   609.10   609.62   734.93
                              751.22   779.92   828.67   864.95   897.81
                              915.80   916.99   967.61  1035.34  1045.22
                             1054.31  1103.95  1130.48  1149.25  1167.35
                             1242.41  1263.27  1266.32  1321.36  1347.83
                             1384.06  1396.25  1443.71  1462.67  1468.43
                             1469.19  1476.61  1483.91  1488.98  1510.12
                             1530.40  1549.40  1576.10  1600.23  1616.64
                             1702.52  1702.66  1706.01  1741.20  1741.37
                             1775.87  1828.94  1871.08  1889.14  1935.50
                             1938.13  1956.04  1961.21  2069.49  2104.80
                             2131.67  2138.68  2141.64  2162.08  2220.87
                             2226.49  2266.22  2349.08  2365.90  2391.40
                             2404.06  2407.25  2434.95  4404.30  4503.33
                             4550.83  4587.29  4593.41  4598.53  4600.98
                             4611.46  4614.96  4621.57  4635.83  4636.59
                             4707.83  5018.76  5190.28  5231.66

 Zero-point correction=                           0.290966 (Hartree/Particle)
 Thermal correction to Energy=                    0.311098
 Thermal correction to Enthalpy=                  0.312042
 Thermal correction to Gibbs Free Energy=         0.239007
 Sum of electronic and zero-point Energies=          -3838.197148
 Sum of electronic and thermal Energies=             -3838.177017
 Sum of electronic and thermal Enthalpies=           -3838.176073
 Sum of electronic and thermal Free Energies=        -3838.249108

                     E (Thermal)             CV                S
                      KCal/Mol        Cal/Mol-Kelvin    Cal/Mol-Kelvin
 Total                  195.217             74.276            153.715
 Electronic               0.000              0.000              0.000
 Translational            0.889              2.981             43.586
 Rotational               0.889              2.981             35.198
 Vibrational            193.439             68.314             74.931
 Vibration     1          0.593              1.985              6.185
 Vibration     2          0.593              1.984              5.984
 Vibration     3          0.594              1.983              5.561
 Vibration     4          0.595              1.979              4.991
 Vibration     5          0.597              1.973              4.416
 Vibration     6          0.599              1.966              4.023
 Vibration     7          0.601              1.958              3.704
 Vibration     8          0.602              1.955              3.618
 Vibration     9          0.612              1.923              2.949
 Vibration    10          0.615              1.914              2.813
 Vibration    11          0.622              1.889              2.529
 Vibration    12          0.632              1.859              2.270
 Vibration    13          0.638              1.840              2.137
 Vibration    14          0.642              1.825              2.042
 Vibration    15          0.650              1.800              1.904
 Vibration    16          0.661              1.768              1.755
 Vibration    17          0.667              1.749              1.676
 Vibration    18          0.670              1.742              1.646
 Vibration    19          0.697              1.662              1.383
 Vibration    20          0.737              1.548              1.109
 Vibration    21          0.746              1.524              1.061
 Vibration    22          0.765              1.474              0.969
 Vibration    23          0.786              1.419              0.881
 Vibration    24          0.786              1.419              0.879
 Vibration    25          0.866              1.226              0.632
 Vibration    26          0.877              1.201              0.605
 Vibration    27          0.897              1.157              0.561
 Vibration    28          0.932              1.083              0.493
 Vibration    29          0.959              1.029              0.448

 Optimization completed.
    -- Stationary point found.
 Normal termination of Gaussian 16 at Mon Mar  1 12:39:56 2021.
