 Gaussian 16, Revision A.03,
 Gaussian 16:  ES64L-G16RevA.03 25-Dec-2016

 ----------------------------------------------------------------------
 # wB97XD def2tzvp, opt=(ts, noeigen, calcfc, maxcycles=70, maxstep=8),
  freq=noraman, scrf=(iefpcm, solvent=water)
 ----------------------------------------------------------------------

 ------------------------
 1_iteration/TS-998-1.out
 ------------------------
 Symbolic Z-matrix:
 Charge =  0 Multiplicity = 1

 SCF Done:  E(RwB97XD) =  -1800.59040103     A.U. after   15 cycles
 SCF Done:  E(RwB97XD) =  -1800.59207970     A.U. after   13 cycles
 SCF Done:  E(RwB97XD) =  -1800.59380252     A.U. after   13 cycles
 SCF Done:  E(RwB97XD) =  -1800.59549832     A.U. after   13 cycles
 SCF Done:  E(RwB97XD) =  -1800.59677095     A.U. after   13 cycles
 SCF Done:  E(RwB97XD) =  -1800.59749801     A.U. after   13 cycles
 SCF Done:  E(RwB97XD) =  -1800.59779692     A.U. after   13 cycles
 SCF Done:  E(RwB97XD) =  -1800.59752338     A.U. after   12 cycles
 SCF Done:  E(RwB97XD) =  -1800.59682140     A.U. after   13 cycles
 SCF Done:  E(RwB97XD) =  -1800.59626110     A.U. after   13 cycles
 SCF Done:  E(RwB97XD) =  -1800.59776437     A.U. after   12 cycles
 SCF Done:  E(RwB97XD) =  -1800.59787965     A.U. after   12 cycles
 SCF Done:  E(RwB97XD) =  -1800.59788006     A.U. after   10 cycles
 SCF Done:  E(RwB97XD) =  -1800.59788044     A.U. after    9 cycles
 SCF Done:  E(RwB97XD) =  -1800.59788052     A.U. after    7 cycles
 SCF Done:  E(RwB97XD) =  -1800.59788054     A.U. after    6 cycles
 SCF Done:  E(RwB97XD) =  -1800.59788058     A.U. after    7 cycles
 SCF Done:  E(RwB97XD) =  -1800.59788050     A.U. after    7 cycles
 SCF Done:  E(RwB97XD) =  -1800.59788053     A.U. after    7 cycles
 Optimization completed.
    -- Stationary point found.
 Normal termination of Gaussian 16 at Fri Jun 11 06:02:56 2021.

 ---------------------------------------------------------------------
 #N Geom=AllCheck Guess=TCheck SCRF=Check GenChk RwB97XD/def2TZVP Freq
 ---------------------------------------------------------------------

 Structure from the checkpoint file:  "/beegfs/scratch/user/q/tla25/Gau-365545.chk"
 ------------------------
 1_iteration/TS-998-1.out
 ------------------------
 Charge =  0 Multiplicity = 1

                         Standard orientation:
 ---------------------------------------------------------------------
 Center     Atomic      Atomic             Coordinates (Angstroms)
 Number     Number       Type             X           Y           Z
 ---------------------------------------------------------------------
      1          6           0       -0.162426    0.410039   -0.120187
      2          6           0       -1.271857   -0.492494    0.222477
      3          8           0       -1.043594   -1.583484    0.768979
      4          6           0        1.089421   -0.122685   -0.376551
      5          6           0        1.891452   -0.223524    2.313675
      6          1           0        0.971406    0.346422    2.437278
      7          1           0        2.058767   -0.822613    3.208975
      8          1           0        2.724772    0.462754    2.178881
      9          7           0        1.754668   -1.068813    1.135555
     10          1           0        0.960982   -1.703175    1.228387
     11          1           0        2.599919   -1.583238    0.916401
     12         17           0        2.411385    0.970452   -0.703884
     13         17           0        1.146389   -1.521824   -1.487076
     14         17           0       -0.310514    2.089388    0.367076
     15          7           0       -2.538599   -0.097759   -0.036527
     16          6           0       -2.890370    0.908665   -1.017485
     17          6           0       -3.643194   -0.866290    0.498137
     18          1           0       -2.019314    1.186914   -1.603848
     19          1           0       -3.641489    0.494336   -1.693785
     20          1           0       -3.303783    1.802290   -0.544458
     21          1           0       -3.338460   -1.363141    1.414941
     22          1           0       -4.472880   -0.191277    0.711333
     23          1           0       -3.985229   -1.623935   -0.213499
 ---------------------------------------------------------------------

 SCF Done:  E(RwB97XD) =  -1800.59788053     A.U. after    1 cycles

 The electronic state is 1-A.
 Alpha  occ. eigenvalues -- -101.71588-101.70691-101.69503 -19.21498 -14.48642
 Alpha  occ. eigenvalues --  -14.46484 -10.45281 -10.39132 -10.31841 -10.31786
 Alpha  occ. eigenvalues --  -10.31021 -10.30730  -9.60167  -9.59279  -9.58007
 Alpha  occ. eigenvalues --   -7.34849  -7.33951  -7.33927  -7.33892  -7.33032
 Alpha  occ. eigenvalues --   -7.33020  -7.32668  -7.31789  -7.31763  -1.14310
 Alpha  occ. eigenvalues --   -1.05543  -1.03895  -1.00794  -0.95511  -0.93537
 Alpha  occ. eigenvalues --   -0.83631  -0.81763  -0.79717  -0.78830  -0.69170
 Alpha  occ. eigenvalues --   -0.64195  -0.62372  -0.60087  -0.58440  -0.57454
 Alpha  occ. eigenvalues --   -0.56683  -0.55350  -0.54659  -0.52487  -0.49277
 Alpha  occ. eigenvalues --   -0.48865  -0.48728  -0.48407  -0.48130  -0.47172
 Alpha  occ. eigenvalues --   -0.46117  -0.43245  -0.42436  -0.41904  -0.40739
 Alpha  occ. eigenvalues --   -0.39007  -0.38855  -0.35331  -0.32530  -0.27540
 Alpha virt. eigenvalues --    0.03796   0.06097   0.07368   0.11007   0.12206
 Alpha virt. eigenvalues --    0.12611   0.15224   0.16117   0.16927   0.17507
 Alpha virt. eigenvalues --    0.17969   0.18257   0.19008   0.19992   0.20295

 Mulliken charges:
               1
     1  C   -0.346654
     2  C    0.351354
     3  O   -0.553076
     4  C    0.215390
     5  C   -0.301415
     6  H    0.156618
     7  H    0.158218
     8  H    0.153645
     9  N   -0.308427
    10  H    0.282116
    11  H    0.285937
    12  Cl  -0.047083
    13  Cl  -0.081775
    14  Cl  -0.144994
    15  N   -0.100726
    16  C   -0.304445
    17  C   -0.290057
    18  H    0.163503
    19  H    0.141335
    20  H    0.145475
    21  H    0.142414
    22  H    0.142714
    23  H    0.139934
 Sum of Mulliken charges =  -0.00000

 Dipole moment (field-independent basis, Debye):
    X=              1.0297    Y=             -0.7186    Z=              2.2904  Tot=              2.6120
 Quadrupole moment (field-independent basis, Debye-Ang):
   XX=            -73.2746   YY=            -97.3006   ZZ=            -88.3050
   XY=             -6.9539   XZ=             10.0791   YZ=             -2.1348

  Exact polarizability: 216.037 -10.089 181.798   9.803  -2.049 157.508
 Approx polarizability: 165.001  -7.048 159.906   5.718  -2.170 135.949

 ******    1 imaginary frequencies (negative Signs) ******

                      1                      2                      3
                      A                      A                      A
 Frequencies --   -386.9305                51.9435                76.0234
 Red. masses --      6.0820                 4.3473                 4.8569
 Frc consts  --      0.5365                 0.0069                 0.0165
 IR Inten    --    841.8993                 4.9165                 5.9683

                      4                      5                      6
                      A                      A                      A
 Frequencies --     87.6296                97.2733               127.6050
 Red. masses --      2.6734                 3.0429                 1.4580
 Frc consts  --      0.0121                 0.0170                 0.0140
 IR Inten    --      2.8458                 3.0646                 0.4793

                      7                      8                      9
                      A                      A                      A
 Frequencies --    144.6307               160.9364               174.6907
 Red. masses --      3.3524                 3.3213                 1.6196
 Frc consts  --      0.0413                 0.0507                 0.0291
 IR Inten    --     26.3974                 5.4346                 3.4161

                     10                     11                     12
                      A                      A                      A
 Frequencies --    179.6189               188.7598               225.0776
 Red. masses --      2.2275                 2.9638                 3.0820
 Frc consts  --      0.0423                 0.0622                 0.0920
 IR Inten    --      3.7155                 3.1869                 6.0590

                     13                     14                     15
                      A                      A                      A
 Frequencies --    231.9153               259.9026               264.2481
 Red. masses --      4.2573                 4.0293                 2.2643
 Frc consts  --      0.1349                 0.1604                 0.0932
 IR Inten    --      0.8739                13.2591                10.2928

                     16                     17                     18
                      A                      A                      A
 Frequencies --    295.4869               329.8521               345.7901
 Red. masses --      5.8480                 6.8278                 4.2221
 Frc consts  --      0.3008                 0.4377                 0.2974
 IR Inten    --     17.6038                32.8493                22.4190

                     19                     20                     21
                      A                      A                      A
 Frequencies --    391.3305               408.2464               488.9402
 Red. masses --      9.2038                 3.4213                 4.3112
 Frc consts  --      0.8304                 0.3360                 0.6072
 IR Inten    --      9.8079                 6.0885                67.4756

                     22                     23                     24
                      A                      A                      A
 Frequencies --    540.3081               656.6023               686.6445
 Red. masses --      8.2461                 3.2765                 2.8806
 Frc consts  --      1.4184                 0.8323                 0.8002
 IR Inten    --    125.7495                 6.3135                46.1874

                     25                     26                     27
                      A                      A                      A
 Frequencies --    773.2998               787.4987               815.3191
 Red. masses --      9.8100                 2.7784                 7.1418
 Frc consts  --      3.4563                 1.0152                 2.7971
 IR Inten    --     68.6442               164.2854               167.0760

                     28                     29                     30
                      A                      A                      A
 Frequencies --    957.5867              1008.8751              1060.6512
 Red. masses --      4.0862                 1.1113                 2.1354
 Frc consts  --      2.2076                 0.6664                 1.4154
 IR Inten    --     47.1398                62.9110                86.1474

                     31                     32                     33
                      A                      A                      A
 Frequencies --   1079.9459              1088.6632              1100.3535
 Red. masses --      2.2758                 1.3866                 1.9670
 Frc consts  --      1.5638                 0.9682                 1.4032
 IR Inten    --      5.4894                19.2272                92.1956

                     34                     35                     36
                      A                      A                      A
 Frequencies --   1132.7300              1170.9355              1218.8705
 Red. masses --      1.2296                 1.4105                 2.4157
 Frc consts  --      0.9295                 1.1394                 2.1145
 IR Inten    --      0.7518                 4.2031               242.8024

                     37                     38                     39
                      A                      A                      A
 Frequencies --   1223.1166              1316.1389              1356.1622
 Red. masses --      1.5968                 5.2490                 1.3281
 Frc consts  --      1.4074                 5.3571                 1.4392
 IR Inten    --     47.7639                55.7310                31.0604

                     40                     41                     42
                      A                      A                      A
 Frequencies --   1399.3931              1442.3844              1447.1370
 Red. masses --      5.5727                 1.7856                 1.1908
 Frc consts  --      6.4297                 2.1887                 1.4693
 IR Inten    --   1066.3501                79.8078                13.3080

                     43                     44                     45
                      A                      A                      A
 Frequencies --   1461.3049              1474.2625              1483.5465
 Red. masses --      1.2314                 1.2355                 1.0708
 Frc consts  --      1.5493                 1.5821                 1.3886
 IR Inten    --     17.0850                31.8000                 6.9725

                     46                     47                     48
                      A                      A                      A
 Frequencies --   1490.0197              1492.8126              1501.3745
 Red. masses --      1.0411                 1.0565                 1.0534
 Frc consts  --      1.3618                 1.3872                 1.3990
 IR Inten    --     24.5351                22.6086                18.6220

                     49                     50                     51
                      A                      A                      A
 Frequencies --   1503.7074              1537.8687              1616.1682
 Red. masses --      1.0332                 1.7723                 1.5520
 Frc consts  --      1.3764                 2.4696                 2.3884
 IR Inten    --      8.4826               201.9101               480.0770

                     52                     53                     54
                      A                      A                      A
 Frequencies --   1649.8436              3038.7364              3047.0640
 Red. masses --      2.3737                 1.0425                 1.0380
 Frc consts  --      3.8069                 5.6718                 5.6784
 IR Inten    --    326.3549                70.3639                97.3594

                     55                     56                     57
                      A                      A                      A
 Frequencies --   3071.1335              3104.1275              3111.4841
 Red. masses --      1.0334                 1.1024                 1.0989
 Frc consts  --      5.7429                 6.2585                 6.2680
 IR Inten    --     33.1791                64.3367                13.6852

                     58                     59                     60
                      A                      A                      A
 Frequencies --   3148.4684              3170.5448              3175.5392
 Red. masses --      1.1041                 1.1058                 1.1006
 Frc consts  --      6.4486                 6.5492                 6.5390
 IR Inten    --     11.0643                12.6318                 9.4143

                     61                     62                     63
                      A                      A                      A
 Frequencies --   3176.6015              3437.1127              3586.3580
 Red. masses --      1.0993                 1.0595                 1.0898
 Frc consts  --      6.5357                 7.3744                 8.2582
 IR Inten    --     12.4792               111.9605               121.6408

 - Thermochemistry -
 -------------------
 Temperature   298.150 Kelvin.  Pressure   1.00000 Atm.
 Atom     1 has atomic number  6 and mass  12.00000

 Molecular mass:   231.99370 amu.
 Principal axes and moments of inertia in atomic units:
                           1         2         3
     Eigenvalues --  2152.300543837.349204288.44882
           X            0.99909  -0.00266   0.04264
           Y            0.00683   0.99517  -0.09788
           Z           -0.04217   0.09808   0.99428
 This molecule is an asymmetric top.
 Rotational symmetry number  1.
 Warning -- assumption of classical behavior for rotation
           may cause significant error
 Rotational temperatures (Kelvin)      0.04024     0.02257     0.02020
 Rotational constants (GHZ):           0.83852     0.47031     0.42084
    1 imaginary frequencies ignored.
 Zero-point vibrational energy     460984.5 (Joules/Mol)
                                  110.17795 (Kcal/Mol)
 Warning -- explicit consideration of  21 degrees of freedom as
           vibrations may cause significant error
 Vibrational temperatures:     74.74   109.38   126.08   139.95   183.60
          (Kelvin)            208.09   231.55   251.34   258.43   271.58
                              323.84   333.67   373.94   380.19   425.14
                              474.58   497.51   563.04   587.38   703.48
                              777.38   944.70   987.93  1112.61  1133.04
                             1173.06  1377.75  1451.55  1526.04  1553.80
                             1566.34  1583.16  1629.75  1684.72  1753.68
                             1759.79  1893.63  1951.21  2013.41  2075.27
                             2082.11  2102.49  2121.13  2134.49  2143.81
                             2147.82  2160.14  2163.50  2212.65  2325.31
                             2373.76  4372.06  4384.05  4418.68  4466.15
                             4476.73  4529.94  4561.71  4568.89  4570.42
                             4945.24  5159.97

 Zero-point correction=                           0.175580 (Hartree/Particle)
 Thermal correction to Energy=                    0.190290
 Thermal correction to Enthalpy=                  0.191234
 Thermal correction to Gibbs Free Energy=         0.133429
 Sum of electronic and zero-point Energies=          -1800.422301
 Sum of electronic and thermal Energies=             -1800.407590
 Sum of electronic and thermal Enthalpies=           -1800.406646
 Sum of electronic and thermal Free Energies=        -1800.464452

                     E (Thermal)             CV                S
                      KCal/Mol        Cal/Mol-Kelvin    Cal/Mol-Kelvin
 Total                  119.409             50.331            121.662
 Electronic               0.000              0.000              0.000
 Translational            0.889              2.981             42.226
 Rotational               0.889              2.981             31.938
 Vibrational            117.631             44.370             47.497
 Vibration     1          0.596              1.977              4.742
 Vibration     2          0.599              1.965              3.991
 Vibration     3          0.601              1.958              3.712
 Vibration     4          0.603              1.951              3.508
 Vibration     5          0.611              1.926              2.982
 Vibration     6          0.616              1.908              2.742
 Vibration     7          0.622              1.890              2.539
 Vibration     8          0.627              1.874              2.384
 Vibration     9          0.629              1.867              2.332
 Vibration    10          0.633              1.855              2.240
 Vibration    11          0.650              1.803              1.918
 Vibration    12          0.653              1.792              1.864
 Vibration    13          0.668              1.746              1.662
 Vibration    14          0.671              1.738              1.634
 Vibration    15          0.690              1.682              1.442
 Vibration    16          0.713              1.616              1.261
 Vibration    17          0.724              1.584              1.185
 Vibration    18          0.759              1.489              0.995
 Vibration    19          0.773              1.452              0.933
 Vibration    20          0.845              1.275              0.686
 Vibration    21          0.895              1.161              0.565

 Optimization completed.
    -- Stationary point found.
 Normal termination of Gaussian 16 at Fri Jun 11 06:15:37 2021.
