 Gaussian 16, Revision A.03,
 Gaussian 16:  ES64L-G16RevA.03 25-Dec-2016

 ----------------------------------------------------------------------
 # wB97XD def2tzvp, opt=(ts, noeigen, calcfc, maxcycles=70, maxstep=8),
  freq=noraman, scrf=(iefpcm, solvent=water)
 ----------------------------------------------------------------------

 ------------------------
 1_iteration/TS-965-1.out
 ------------------------
 Symbolic Z-matrix:
 Charge =  0 Multiplicity = 1

 SCF Done:  E(RwB97XD) =  -1532.73584969     A.U. after   15 cycles
 SCF Done:  E(RwB97XD) =  -1532.73652259     A.U. after   12 cycles
 SCF Done:  E(RwB97XD) =  -1532.73677256     A.U. after   12 cycles
 SCF Done:  E(RwB97XD) =  -1532.73682933     A.U. after   12 cycles
 SCF Done:  E(RwB97XD) =  -1532.73685067     A.U. after   10 cycles
 SCF Done:  E(RwB97XD) =  -1532.73685066     A.U. after   11 cycles
 SCF Done:  E(RwB97XD) =  -1532.73685718     A.U. after   11 cycles
 SCF Done:  E(RwB97XD) =  -1532.73686317     A.U. after   10 cycles
 SCF Done:  E(RwB97XD) =  -1532.73686373     A.U. after    9 cycles
 SCF Done:  E(RwB97XD) =  -1532.73686385     A.U. after    8 cycles
 SCF Done:  E(RwB97XD) =  -1532.73686389     A.U. after    6 cycles
 Optimization completed.
    -- Stationary point found.
 Normal termination of Gaussian 16 at Sun Feb 28 20:34:33 2021.

 ---------------------------------------------------------------------
 #N Geom=AllCheck Guess=TCheck SCRF=Check GenChk RwB97XD/def2TZVP Freq
 ---------------------------------------------------------------------

 Structure from the checkpoint file:  "/beegfs/scratch/user/q/tla25/Gau-762.chk"
 ------------------------
 1_iteration/TS-965-1.out
 ------------------------
 Charge =  0 Multiplicity = 1

                         Standard orientation:
 ---------------------------------------------------------------------
 Center     Atomic      Atomic             Coordinates (Angstroms)
 Number     Number       Type             X           Y           Z
 ---------------------------------------------------------------------
      1          6           0       -0.127581    0.272500   -0.200005
      2          6           0       -0.794842    1.571489   -0.128109
      3          8           0       -0.151906    2.615781    0.016046
      4          6           0       -0.790212   -0.940105   -0.210116
      5          6           0       -1.086732   -0.842906    2.542914
      6          1           0       -1.704598   -0.943720    3.433949
      7          1           0       -0.210204   -1.481496    2.632169
      8          1           0       -0.770485    0.193673    2.440828
      9          7           0       -1.833272   -1.213535    1.348953
     10          1           0       -2.126131   -2.184613    1.355914
     11          1           0       -2.656139   -0.630565    1.239432
     12         17           0        0.189941   -2.395161   -0.166651
     13         17           0       -2.181066   -1.251268   -1.361071
     14          6           0        1.365097    0.312032   -0.129399
     15          6           0        2.044062    0.491429    1.073394
     16          6           0        3.429741    0.536733    1.112696
     17          6           0        4.165173    0.404977   -0.057178
     18          6           0        3.503225    0.233394   -1.264200
     19          6           0        2.116538    0.191569   -1.296316
     20          1           0        1.480746    0.597703    1.991707
     21          1           0        3.936760    0.673879    2.059937
     22          1           0        5.247134    0.437635   -0.027790
     23          1           0        4.066652    0.133150   -2.183769
     24          1           0        1.602241    0.057431   -2.240623
     25          7           0       -2.164225    1.621302   -0.144855
     26          6           0       -2.840319    2.900799   -0.151671
     27          1           0       -2.648206    0.868648   -0.602928
     28          1           0       -2.602637    3.492425   -1.040180
     29          1           0       -3.913660    2.722754   -0.122923
     30          1           0       -2.559510    3.480303    0.726438
 ---------------------------------------------------------------------

 SCF Done:  E(RwB97XD) =  -1532.73686389     A.U. after    1 cycles

 The electronic state is 1-A.
 Alpha  occ. eigenvalues -- -101.71510-101.70700 -19.20168 -14.50338 -14.44579
 Alpha  occ. eigenvalues --  -10.45438 -10.37991 -10.32346 -10.30516 -10.29869
 Alpha  occ. eigenvalues --  -10.28672 -10.28635 -10.28587 -10.28394 -10.28358
 Alpha  occ. eigenvalues --  -10.27502  -9.60093  -9.59309  -7.34770  -7.33928
 Alpha  occ. eigenvalues --   -7.33860  -7.33819  -7.33100  -7.33063  -1.12999
 Alpha  occ. eigenvalues --   -1.06469  -1.01413  -1.00410  -0.96196  -0.93262
 Alpha  occ. eigenvalues --   -0.88626  -0.84639  -0.83014  -0.79900  -0.78801
 Alpha  occ. eigenvalues --   -0.71214  -0.69974  -0.68543  -0.66008  -0.64618
 Alpha  occ. eigenvalues --   -0.61770  -0.59818  -0.58871  -0.56700  -0.56040
 Alpha  occ. eigenvalues --   -0.54154  -0.53946  -0.53214  -0.53021  -0.50998
 Alpha  occ. eigenvalues --   -0.50459  -0.49332  -0.48898  -0.48075  -0.47157
 Alpha  occ. eigenvalues --   -0.46192  -0.45869  -0.43265  -0.42494  -0.42242
 Alpha  occ. eigenvalues --   -0.41815  -0.39794  -0.39602  -0.34648  -0.33806
 Alpha  occ. eigenvalues --   -0.33139  -0.32542  -0.28216
 Alpha virt. eigenvalues --    0.03144   0.05103   0.05985   0.06577   0.08615
 Alpha virt. eigenvalues --    0.10242   0.12940   0.13462   0.14404   0.15824
 Alpha virt. eigenvalues --    0.16068   0.16546   0.17107   0.17966   0.18337

 Mulliken charges:
               1
     1  C   -0.257458
     2  C    0.319362
     3  O   -0.528053
     4  C    0.095142
     5  C   -0.311092
     6  H    0.173701
     7  H    0.166500
     8  H    0.159724
     9  N   -0.290352
    10  H    0.298598
    11  H    0.285208
    12  Cl  -0.045008
    13  Cl  -0.115136
    14  C    0.245658
    15  C   -0.234100
    16  C   -0.161778
    17  C   -0.136721
    18  C   -0.153898
    19  C   -0.237263
    20  H    0.140572
    21  H    0.137856
    22  H    0.141740
    23  H    0.138349
    24  H    0.135033
    25  N   -0.338137
    26  C   -0.261820
    27  H    0.238841
    28  H    0.123573
    29  H    0.139087
    30  H    0.131872
 Sum of Mulliken charges =  -0.00000

 Dipole moment (field-independent basis, Debye):
    X=             -6.2474    Y=             -5.7233    Z=              4.5842  Tot=              9.6333
 Quadrupole moment (field-independent basis, Debye-Ang):
   XX=            -88.2580   YY=           -120.8460   ZZ=            -96.4017
   XY=             -0.8970   XZ=             -7.1229   YZ=             -6.1678

  Exact polarizability: 276.578   9.561 229.571   1.696   1.984 231.030
 Approx polarizability: 219.796   8.287 189.088   2.177   3.775 197.866

 ******    1 imaginary frequencies (negative Signs) ******

                      1                      2                      3
                      A                      A                      A
 Frequencies --   -395.1823                31.8369                52.5858
 Red. masses --      5.5190                 3.8379                 5.0872
 Frc consts  --      0.5078                 0.0023                 0.0083
 IR Inten    --    545.9479                 0.4349                10.1152

                      4                      5                      6
                      A                      A                      A
 Frequencies --     68.9465                74.9560                87.3065
 Red. masses --      3.3981                 4.9061                 4.7891
 Frc consts  --      0.0095                 0.0162                 0.0215
 IR Inten    --      7.3520                 5.7581                 4.1896

                      7                      8                      9
                      A                      A                      A
 Frequencies --     99.2069               139.0806               157.1421
 Red. masses --      2.3224                 3.7962                 1.5791
 Frc consts  --      0.0135                 0.0433                 0.0230
 IR Inten    --      8.5807                 7.1817                 0.1835

                     10                     11                     12
                      A                      A                      A
 Frequencies --    163.7547               178.2874               188.5518
 Red. masses --      1.2719                 2.7949                 3.2984
 Frc consts  --      0.0201                 0.0523                 0.0691
 IR Inten    --      4.2707                 2.1682                15.1709

                     13                     14                     15
                      A                      A                      A
 Frequencies --    227.7221               242.4316               257.6288
 Red. masses --      4.0105                 5.1824                 5.0797
 Frc consts  --      0.1225                 0.1795                 0.1986
 IR Inten    --      6.8800                 1.0836                 1.3540

                     16                     17                     18
                      A                      A                      A
 Frequencies --    278.7257               287.4174               323.9440
 Red. masses --      5.2765                 5.1594                 6.3155
 Frc consts  --      0.2415                 0.2511                 0.3905
 IR Inten    --     22.8004                 5.3984                31.6464

                     19                     20                     21
                      A                      A                      A
 Frequencies --    355.6743               382.8831               422.4315
 Red. masses --      6.4759                 5.6337                 5.7610
 Frc consts  --      0.4827                 0.4866                 0.6057
 IR Inten    --     28.7225                38.1851                18.9569

                     22                     23                     24
                      A                      A                      A
 Frequencies --    425.0816               523.1451               527.1688
 Red. masses --      3.3300                 2.6597                 1.6497
 Frc consts  --      0.3545                 0.4289                 0.2701
 IR Inten    --      5.5478                32.9608                78.1295

                     25                     26                     27
                      A                      A                      A
 Frequencies --    576.2085               632.6306               641.9958
 Red. masses --      5.0047                 5.6770                 5.0055
 Frc consts  --      0.9790                 1.3387                 1.2155
 IR Inten    --    207.9297               110.9323                21.3989

                     28                     29                     30
                      A                      A                      A
 Frequencies --    663.6385               722.5426               730.5077
 Red. masses --      1.8611                 2.6697                 1.7045
 Frc consts  --      0.4829                 0.8212                 0.5359
 IR Inten    --      9.0972                26.5678               254.7518

                     31                     32                     33
                      A                      A                      A
 Frequencies --    778.9605               797.8449               815.3066
 Red. masses --      3.8649                 6.8265                 2.6782
 Frc consts  --      1.3817                 2.5603                 1.0489
 IR Inten    --    141.9478                41.8778                28.4337

                     34                     35                     36
                      A                      A                      A
 Frequencies --    875.9149               897.2051               948.4491
 Red. masses --      1.2500                 4.2212                 1.7207
 Frc consts  --      0.5650                 2.0020                 0.9120
 IR Inten    --      0.3454                68.4913                 0.9800

                     37                     38                     39
                      A                      A                      A
 Frequencies --    976.6616              1010.0891              1014.5233
 Red. masses --      2.8364                 1.3768                 1.1328
 Frc consts  --      1.5941                 0.8276                 0.6869
 IR Inten    --     15.6030                 0.5533                23.6649

                     40                     41                     42
                      A                      A                      A
 Frequencies --   1026.1900              1027.6344              1057.3176
 Red. masses --      1.3105                 6.0654                 1.1751
 Frc consts  --      0.8131                 3.7738                 0.7740
 IR Inten    --      0.2378                 0.9622                52.1376

                     43                     44                     45
                      A                      A                      A
 Frequencies --   1062.1754              1088.6705              1108.5406
 Red. masses --      2.1283                 4.5915                 1.5496
 Frc consts  --      1.4148                 3.2062                 1.1219
 IR Inten    --      8.6922                60.7502                14.1546

                     46                     47                     48
                      A                      A                      A
 Frequencies --   1132.5303              1152.6782              1180.8889
 Red. masses --      3.1294                 1.3871                 1.1325
 Frc consts  --      2.3649                 1.0858                 0.9305
 IR Inten    --     14.7475                 8.1235                 0.0742

                     49                     50                     51
                      A                      A                      A
 Frequencies --   1184.4585              1206.1832              1232.8126
 Red. masses --      1.7115                 1.1200                 1.3988
 Frc consts  --      1.4147                 0.9601                 1.2526
 IR Inten    --     69.7240                 0.2678                38.4826

                     52                     53                     54
                      A                      A                      A
 Frequencies --   1262.7317              1307.1726              1316.0289
 Red. masses --      3.1724                 4.4338                 4.3358
 Frc consts  --      2.9803                 4.4637                 4.4244
 IR Inten    --     62.4022                31.2866               815.5154

                     55                     56                     57
                      A                      A                      A
 Frequencies --   1349.9019              1355.7844              1436.5417
 Red. masses --      1.3396                 1.4435                 2.8097
 Frc consts  --      1.4382                 1.5633                 3.4162
 IR Inten    --     26.9918                 1.1991               415.8703

                     58                     59                     60
                      A                      A                      A
 Frequencies --   1458.9467              1463.8438              1479.9213
 Red. masses --      1.2011                 1.4832                 1.0586
 Frc consts  --      1.5063                 1.8725                 1.3661
 IR Inten    --     20.2209               104.4161                24.6095

                     61                     62                     63
                      A                      A                      A
 Frequencies --   1486.8309              1494.5959              1498.5329
 Red. masses --      2.1796                 1.0448                 1.0406
 Frc consts  --      2.8389                 1.3752                 1.3767
 IR Inten    --      7.9407                41.2316                19.6108

                     64                     65                     66
                      A                      A                      A
 Frequencies --   1502.9690              1544.9570              1561.1806
 Red. masses --      1.0765                 2.4370                 1.7202
 Frc consts  --      1.4327                 3.4271                 2.4702
 IR Inten    --      8.4593                31.5177               455.1564

                     67                     68                     69
                      A                      A                      A
 Frequencies --   1627.3317              1646.3416              1656.8301
 Red. masses --      1.1089                 5.7583                 6.6279
 Frc consts  --      1.7302                 9.1956                10.7196
 IR Inten    --    123.1681                 3.3142               591.4712

                     70                     71                     72
                      A                      A                      A
 Frequencies --   1673.2176              3044.4260              3079.3606
 Red. masses --      6.0726                 1.0434                 1.0324
 Frc consts  --     10.0168                 5.6978                 5.7679
 IR Inten    --    118.2252                88.6732                20.8746

                     73                     74                     75
                      A                      A                      A
 Frequencies --   3121.0886              3159.8639              3163.0357
 Red. masses --      1.0928                 1.1043                 1.1050
 Frc consts  --      6.2719                 6.4966                 6.5137
 IR Inten    --     38.9555                23.6706                 7.0059

                     76                     77                     78
                      A                      A                      A
 Frequencies --   3175.3051              3188.0650              3194.0795
 Red. masses --      1.1063                 1.0860                 1.0880
 Frc consts  --      6.5720                 6.5031                 6.5398
 IR Inten    --      8.5344                 4.7272                 0.3288

                     79                     80                     81
                      A                      A                      A
 Frequencies --   3203.4504              3211.5715              3219.9003
 Red. masses --      1.0923                 1.0944                 1.0983
 Frc consts  --      6.6042                 6.6507                 6.7093
 IR Inten    --     25.7622                46.8733                15.5392

                     82                     83                     84
                      A                      A                      A
 Frequencies --   3515.1507              3599.9524              3645.7793
 Red. masses --      1.0506                 1.0971                 1.0765
 Frc consts  --      7.6486                 8.3772                 8.4305
 IR Inten    --     70.7753                76.6202               103.2732

 - Thermochemistry -
 -------------------
 Temperature   298.150 Kelvin.  Pressure   1.00000 Atm.
 Atom     1 has atomic number  6 and mass  12.00000

 Molecular mass:   260.04832 amu.
 Principal axes and moments of inertia in atomic units:
                           1         2         3
     Eigenvalues --  3253.144315116.848576326.28108
           X            0.99918  -0.03648  -0.01772
           Y            0.03588   0.99879  -0.03357
           Z            0.01893   0.03290   0.99928
 This molecule is an asymmetric top.
 Rotational symmetry number  1.
 Warning -- assumption of classical behavior for rotation
           may cause significant error
 Rotational temperatures (Kelvin)      0.02662     0.01693     0.01369
 Rotational constants (GHZ):           0.55477     0.35271     0.28528
    1 imaginary frequencies ignored.
 Zero-point vibrational energy     626144.3 (Joules/Mol)
                                  149.65209 (Kcal/Mol)
 Warning -- explicit consideration of  24 degrees of freedom as
           vibrations may cause significant error
 Vibrational temperatures:     45.81    75.66    99.20   107.84   125.61
          (Kelvin)            142.74   200.11   226.09   235.61   256.52
                              271.28   327.64   348.80   370.67   401.02
                              413.53   466.08   511.74   550.88   607.78
                              611.60   752.69   758.48   829.04   910.21
                              923.69   954.83  1039.58  1051.04  1120.75
                             1147.92  1173.04  1260.25  1290.88  1364.61
                             1405.20  1453.29  1459.67  1476.46  1478.54
                             1521.24  1528.23  1566.35  1594.94  1629.46
                             1658.45  1699.04  1704.17  1735.43  1773.74
                             1816.79  1880.73  1893.47  1942.21  1950.67
                             2066.86  2099.10  2106.14  2129.28  2139.22
                             2150.39  2156.05  2162.44  2222.85  2246.19
                             2341.37  2368.72  2383.81  2407.39  4380.25
                             4430.51  4490.55  4546.34  4550.90  4568.56
                             4586.91  4595.57  4609.05  4620.74  4632.72
                             5057.52  5179.53  5245.46

 Zero-point correction=                           0.238486 (Hartree/Particle)
 Thermal correction to Energy=                    0.255311
 Thermal correction to Enthalpy=                  0.256255
 Thermal correction to Gibbs Free Energy=         0.192973
 Sum of electronic and zero-point Energies=          -1532.498378
 Sum of electronic and thermal Energies=             -1532.481553
 Sum of electronic and thermal Enthalpies=           -1532.480609
 Sum of electronic and thermal Free Energies=        -1532.543891

                     E (Thermal)             CV                S
                      KCal/Mol        Cal/Mol-Kelvin    Cal/Mol-Kelvin
 Total                  160.210             60.716            133.189
 Electronic               0.000              0.000              0.000
 Translational            0.889              2.981             42.567
 Rotational               0.889              2.981             33.021
 Vibrational            158.432             54.755             57.602
 Vibration     1          0.594              1.983              5.712
 Vibration     2          0.596              1.977              4.718
 Vibration     3          0.598              1.969              4.183
 Vibration     4          0.599              1.966              4.019
 Vibration     5          0.601              1.958              3.720
 Vibration     6          0.604              1.950              3.470
 Vibration     7          0.615              1.914              2.816
 Vibration     8          0.621              1.895              2.584
 Vibration     9          0.623              1.887              2.506
 Vibration    10          0.629              1.869              2.346
 Vibration    11          0.633              1.856              2.242
 Vibration    12          0.651              1.799              1.897
 Vibration    13          0.659              1.775              1.785
 Vibration    14          0.667              1.750              1.678
 Vibration    15          0.679              1.713              1.541
 Vibration    16          0.685              1.697              1.489
 Vibration    17          0.708              1.628              1.290
 Vibration    18          0.731              1.564              1.141
 Vibration    19          0.752              1.507              1.028
 Vibration    20          0.785              1.421              0.884
 Vibration    21          0.787              1.416              0.875
 Vibration    22          0.878              1.199              0.603
 Vibration    23          0.882              1.190              0.594
 Vibration    24          0.933              1.083              0.492

 Optimization completed.
    -- Stationary point found.
 Normal termination of Gaussian 16 at Sun Feb 28 21:43:19 2021.
