 Gaussian 16, Revision A.03,
 Gaussian 16:  ES64L-G16RevA.03 25-Dec-2016

 ----------------------------------------------------------------------
 # wB97XD def2tzvp, opt=(ts, noeigen, calcfc, maxcycles=70, maxstep=1),
  freq=noraman, scrf=(iefpcm, solvent=water)
 ----------------------------------------------------------------------

 ------------------------
 0_iteration/TS-945-0.out
 ------------------------
 Symbolic Z-matrix:
 Charge =  0 Multiplicity = 1

 SCF Done:  E(RwB97XD) =  -5894.61333344     A.U. after   15 cycles
 SCF Done:  E(RwB97XD) =  -5894.61322786     A.U. after   10 cycles
 SCF Done:  E(RwB97XD) =  -5894.61312585     A.U. after   10 cycles
 SCF Done:  E(RwB97XD) =  -5894.61302705     A.U. after   10 cycles
 SCF Done:  E(RwB97XD) =  -5894.61293164     A.U. after   10 cycles
 SCF Done:  E(RwB97XD) =  -5894.61283971     A.U. after   10 cycles
 SCF Done:  E(RwB97XD) =  -5894.61275133     A.U. after   10 cycles
 SCF Done:  E(RwB97XD) =  -5894.61266662     A.U. after   10 cycles
 SCF Done:  E(RwB97XD) =  -5894.61258548     A.U. after   10 cycles
 SCF Done:  E(RwB97XD) =  -5894.61250784     A.U. after   10 cycles
 SCF Done:  E(RwB97XD) =  -5894.61179803     A.U. after   10 cycles
 SCF Done:  E(RwB97XD) =  -5894.61177516     A.U. after   10 cycles
 SCF Done:  E(RwB97XD) =  -5894.61175609     A.U. after   10 cycles
 SCF Done:  E(RwB97XD) =  -5894.61174084     A.U. after   10 cycles
 SCF Done:  E(RwB97XD) =  -5894.61172929     A.U. after   10 cycles
 SCF Done:  E(RwB97XD) =  -5894.61172151     A.U. after   10 cycles
 SCF Done:  E(RwB97XD) =  -5894.61171737     A.U. after   10 cycles
 SCF Done:  E(RwB97XD) =  -5894.61171565     A.U. after   10 cycles
 SCF Done:  E(RwB97XD) =  -5894.61171653     A.U. after   10 cycles
 Optimization completed.
    -- Stationary point found.
 Normal termination of Gaussian 16 at Sat Feb 27 20:34:07 2021.

 ---------------------------------------------------------------------
 #N Geom=AllCheck Guess=TCheck SCRF=Check GenChk RwB97XD/def2TZVP Freq
 ---------------------------------------------------------------------

 Structure from the checkpoint file:  "/beegfs/scratch/user/q/tla25/Gau-100520.chk"
 ------------------------
 0_iteration/TS-945-0.out
 ------------------------
 Charge =  0 Multiplicity = 1

                         Standard orientation:
 ---------------------------------------------------------------------
 Center     Atomic      Atomic             Coordinates (Angstroms)
 Number     Number       Type             X           Y           Z
 ---------------------------------------------------------------------
      1          6           0        0.613622    0.451358   -0.281354
      2          6           0        0.591358    1.879429   -0.393560
      3          8           0        1.571259    2.606297   -0.440689
      4          6           0       -0.499912   -0.354210   -0.135313
      5          6           0       -0.626698    0.488491    2.604816
      6          1           0       -0.596268    0.284709    3.675158
      7          1           0        0.297884    0.990034    2.316868
      8          1           0       -1.468805    1.143948    2.389253
      9          7           0       -0.756634   -0.733487    1.829353
     10          1           0       -0.026029   -1.400421    2.050701
     11          1           0       -1.653437   -1.187476    1.959094
     12         17           0       -0.437821   -2.031850   -0.629217
     13         35           0       -2.226569    0.396451   -0.502063
     14         35           0        2.328385   -0.342451   -0.106104
     15          1           0       -0.417830    2.314275   -0.456027
 ---------------------------------------------------------------------

 SCF Done:  E(RwB97XD) =  -5894.61171653     A.U. after    1 cycles

 The electronic state is 1-A.
 Alpha  occ. eigenvalues -- -483.15547-483.13447-101.72223 -62.70382 -62.68277
 Alpha  occ. eigenvalues --  -56.49529 -56.49129 -56.49119 -56.47397 -56.47040
 Alpha  occ. eigenvalues --  -56.47027 -19.23171 -14.48977 -10.46008 -10.37002
 Alpha  occ. eigenvalues --  -10.33376 -10.32112  -9.60793  -8.84489  -8.82390
 Alpha  occ. eigenvalues --   -7.35483  -7.34552  -7.34511  -6.66734  -6.65458
 Alpha  occ. eigenvalues --   -6.65429  -6.64557  -6.63408  -6.63368  -2.77105
 Alpha  occ. eigenvalues --   -2.76738  -2.76717  -2.75686  -2.75686  -2.74946
 Alpha  occ. eigenvalues --   -2.74612  -2.74581  -2.73652  -2.73651  -1.13769
 Alpha  occ. eigenvalues --   -1.05174  -1.00828  -0.92726  -0.90972  -0.82942
 Alpha  occ. eigenvalues --   -0.79381  -0.73631  -0.63992  -0.62874  -0.59536
 Alpha  occ. eigenvalues --   -0.58371  -0.55991  -0.55448  -0.51644  -0.49490
 Alpha  occ. eigenvalues --   -0.48713  -0.47695  -0.47322  -0.43270  -0.41065
 Alpha  occ. eigenvalues --   -0.40245  -0.39642  -0.38343  -0.36957  -0.34218
 Alpha  occ. eigenvalues --   -0.30076
 Alpha virt. eigenvalues --    0.00464   0.02491   0.05394   0.10484   0.11955
 Alpha virt. eigenvalues --    0.12564   0.14680   0.15231   0.17694   0.17999
 Alpha virt. eigenvalues --    0.19607   0.21833   0.22740   0.23341   0.24587

 Mulliken charges:
               1
     1  C   -0.182237
     2  C    0.099178
     3  O   -0.444201
     4  C    0.143639
     5  C   -0.307667
     6  H    0.166887
     7  H    0.163725
     8  H    0.161248
     9  N   -0.373164
    10  H    0.289824
    11  H    0.298320
    12  Cl  -0.021691
    13  Br  -0.013909
    14  Br  -0.093181
    15  H    0.113228
 Sum of Mulliken charges =  -0.00000

 Dipole moment (field-independent basis, Debye):
    X=             -6.3397    Y=             -4.6165    Z=              6.0371  Tot=              9.8970
 Quadrupole moment (field-independent basis, Debye-Ang):
   XX=            -89.4420   YY=            -93.0961   ZZ=            -73.6964
   XY=             -9.1409   XZ=             -1.8448   YZ=             -1.6869

  Exact polarizability: 192.502  11.057 172.215  -8.513 -10.697 138.774
 Approx polarizability: 155.588   6.795 147.639  -4.662  -7.799 117.997

 ******    1 imaginary frequencies (negative Signs) ******

                      1                      2                      3
                      A                      A                      A
 Frequencies --   -357.9310                50.2986                63.5866
 Red. masses --      5.7913                 8.2003                 2.3286
 Frc consts  --      0.4371                 0.0122                 0.0055
 IR Inten    --    786.9210                 1.1972                 0.1831

                      4                      5                      6
                      A                      A                      A
 Frequencies --    104.9636               137.3046               155.8708
 Red. masses --      2.6017                 2.3763                10.9939
 Frc consts  --      0.0169                 0.0264                 0.1574
 IR Inten    --      6.6892                 1.8121                 3.4532

                      7                      8                      9
                      A                      A                      A
 Frequencies --    179.0670               184.5142               208.7297
 Red. masses --      2.9137                 5.1661                 8.8141
 Frc consts  --      0.0550                 0.1036                 0.2263
 IR Inten    --      5.5079                 5.1422                10.6129

                     10                     11                     12
                      A                      A                      A
 Frequencies --    224.1975               255.3052               294.4842
 Red. masses --      5.6330                 5.8091                 5.3431
 Frc consts  --      0.1668                 0.2231                 0.2730
 IR Inten    --      8.8648                 3.8883                20.6179

                     13                     14                     15
                      A                      A                      A
 Frequencies --    324.2016               412.1112               513.4922
 Red. masses --      3.0496                14.0878                 4.8230
 Frc consts  --      0.1889                 1.4097                 0.7493
 IR Inten    --      9.7313                 4.9211               115.3111

                     16                     17                     18
                      A                      A                      A
 Frequencies --    585.9307               624.4360               766.7230
 Red. masses --      3.5639                 1.9438                 5.3301
 Frc consts  --      0.7209                 0.4466                 1.8461
 IR Inten    --     56.4190                30.8960               208.2496

                     19                     20                     21
                      A                      A                      A
 Frequencies --    840.3887               988.6897              1013.4847
 Red. masses --      8.3014                 1.0829                 1.2979
 Frc consts  --      3.4543                 0.6237                 0.7855
 IR Inten    --    140.1100                53.0910                40.6898

                     22                     23                     24
                      A                      A                      A
 Frequencies --   1017.2436              1087.3915              1202.5791
 Red. masses --      1.3960                 4.6962                 1.7938
 Frc consts  --      0.8511                 3.2717                 1.5284
 IR Inten    --     43.3925                20.1210                58.9745

                     25                     26                     27
                      A                      A                      A
 Frequencies --   1206.0973              1341.4764              1373.8031
 Red. masses --      3.0496                 1.3353                 2.2565
 Frc consts  --      2.6137                 1.4158                 2.5092
 IR Inten    --    226.0105                 2.4769               721.9076

                     28                     29                     30
                      A                      A                      A
 Frequencies --   1446.7723              1466.8029              1491.2018
 Red. masses --      1.5505                 1.5252                 1.0429
 Frc consts  --      1.9122                 1.9334                 1.3664
 IR Inten    --    296.2178               191.5964                21.5142

                     31                     32                     33
                      A                      A                      A
 Frequencies --   1501.4949              1643.3188              1700.0481
 Red. masses --      1.0321                 1.0913                 9.9183
 Frc consts  --      1.3710                 1.7363                16.8892
 IR Inten    --     16.2679                65.8580               851.5723

                     34                     35                     36
                      A                      A                      A
 Frequencies --   3005.8130              3065.5740              3141.8940
 Red. masses --      1.0839                 1.0330                 1.1045
 Frc consts  --      5.7700                 5.7196                 6.4237
 IR Inten    --     59.1492                21.5576                 9.2054

                     37                     38                     39
                      A                      A                      A
 Frequencies --   3160.2886              3523.7568              3609.8140
 Red. masses --      1.1055                 1.0502                 1.0971
 Frc consts  --      6.5051                 7.6834                 8.4231
 IR Inten    --     10.7159                79.7030                58.9256

 - Thermochemistry -
 -------------------
 Temperature   298.150 Kelvin.  Pressure   1.00000 Atm.
 Atom     1 has atomic number  6 and mass  12.00000

 Molecular mass:   276.85046 amu.
 Principal axes and moments of inertia in atomic units:
                           1         2         3
     Eigenvalues --  1938.405853915.776384421.49848
           X            0.99942   0.02450  -0.02355
           Y           -0.02451   0.99970  -0.00038
           Z            0.02354   0.00095   0.99972
 This molecule is an asymmetric top.
 Rotational symmetry number  1.
 Warning -- assumption of classical behavior for rotation
           may cause significant error
 Rotational temperatures (Kelvin)      0.04468     0.02212     0.01959
 Rotational constants (GHZ):           0.93104     0.46089     0.40817
    1 imaginary frequencies ignored.
 Zero-point vibrational energy     262659.0 (Joules/Mol)
                                   62.77700 (Kcal/Mol)
 Warning -- explicit consideration of  15 degrees of freedom as
           vibrations may cause significant error
 Vibrational temperatures:     72.37    91.49   151.02   197.55   224.26
          (Kelvin)            257.64   265.47   300.32   322.57   367.33
                              423.70   466.45   592.94   738.80   843.02
                              898.42  1103.14  1209.13  1422.50  1458.18
                             1463.59  1564.51  1730.24  1735.31  1930.09
                             1976.60  2081.58  2110.40  2145.51  2160.32
                             2364.37  2445.99  4324.69  4410.68  4520.48
                             4546.95  5069.90  5193.72

 Zero-point correction=                           0.100042 (Hartree/Particle)
 Thermal correction to Energy=                    0.111281
 Thermal correction to Enthalpy=                  0.112225
 Thermal correction to Gibbs Free Energy=         0.060443
 Sum of electronic and zero-point Energies=          -5894.511675
 Sum of electronic and thermal Energies=             -5894.500436
 Sum of electronic and thermal Enthalpies=           -5894.499491
 Sum of electronic and thermal Free Energies=        -5894.551274

                     E (Thermal)             CV                S
                      KCal/Mol        Cal/Mol-Kelvin    Cal/Mol-Kelvin
 Total                   69.830             36.553            108.986
 Electronic               0.000              0.000              0.000
 Translational            0.889              2.981             42.753
 Rotational               0.889              2.981             31.884
 Vibrational             68.052             30.591             34.348
 Vibration     1          0.595              1.977              4.806
 Vibration     2          0.597              1.972              4.343
 Vibration     3          0.605              1.945              3.360
 Vibration     4          0.614              1.916              2.841
 Vibration     5          0.620              1.896              2.599
 Vibration     6          0.629              1.868              2.338
 Vibration     7          0.631              1.861              2.282
 Vibration     8          0.642              1.827              2.055
 Vibration     9          0.649              1.804              1.925
 Vibration    10          0.666              1.754              1.694
 Vibration    11          0.689              1.684              1.448
 Vibration    12          0.709              1.627              1.289
 Vibration    13          0.776              1.444              0.919
 Vibration    14          0.869              1.220              0.625
 Vibration    15          0.943              1.062              0.474

 Optimization completed.
    -- Stationary point found.
 Normal termination of Gaussian 16 at Sat Feb 27 20:45:41 2021.
