 Gaussian 16, Revision A.03,
 Gaussian 16:  ES64L-G16RevA.03 25-Dec-2016

 ----------------------------------------------------------------------
 # wB97XD def2tzvp, opt=(ts, noeigen, calcfc, maxcycles=70, maxstep=8),
  freq=noraman, scrf=(iefpcm, solvent=water)
 ----------------------------------------------------------------------

 ------------------------
 1_iteration/TS-983-1.out
 ------------------------
 Symbolic Z-matrix:
 Charge =  0 Multiplicity = 1

 SCF Done:  E(RwB97XD) =  -1532.73870057     A.U. after   15 cycles
 SCF Done:  E(RwB97XD) =  -1532.73870651     A.U. after   10 cycles
 SCF Done:  E(RwB97XD) =  -1532.73870648     A.U. after    9 cycles
 SCF Done:  E(RwB97XD) =  -1532.73870664     A.U. after    9 cycles
 SCF Done:  E(RwB97XD) =  -1532.73870666     A.U. after    7 cycles
 Optimization completed.
    -- Stationary point found.
 Normal termination of Gaussian 16 at Sun Feb 28 17:31:26 2021.

 ---------------------------------------------------------------------
 #N Geom=AllCheck Guess=TCheck SCRF=Check GenChk RwB97XD/def2TZVP Freq
 ---------------------------------------------------------------------

 Structure from the checkpoint file:  "/beegfs/scratch/user/q/tla25/Gau-25918.chk"
 ------------------------
 1_iteration/TS-983-1.out
 ------------------------
 Charge =  0 Multiplicity = 1

                         Standard orientation:
 ---------------------------------------------------------------------
 Center     Atomic      Atomic             Coordinates (Angstroms)
 Number     Number       Type             X           Y           Z
 ---------------------------------------------------------------------
      1          6           0        1.382573    0.783655   -0.713032
      2          6           0       -0.062271    0.966410   -0.684010
      3          8           0       -0.587539    2.041509   -0.972296
      4          6           0        2.027347   -0.303842   -0.146664
      5          6           0        1.848204    0.833152    2.363412
      6          1           0        1.454863    0.808873    3.378402
      7          1           0        2.907688    1.076497    2.388076
      8          1           0        1.315439    1.590447    1.788589
      9          7           0        1.663483   -0.453197    1.702241
     10          1           0        2.244766   -1.185792    2.095379
     11          1           0        0.694208   -0.750505    1.749028
     12         17           0        3.781476   -0.257852   -0.109067
     13         17           0        1.545396   -2.024953   -0.536513
     14          6           0        2.179005    1.986565   -1.167423
     15          1           0        3.002719    1.705860   -1.823907
     16          1           0        1.514989    2.647883   -1.718885
     17          1           0        2.599278    2.562905   -0.337367
     18          7           0       -0.847083   -0.099622   -0.263347
     19          6           0       -2.241488   -0.091131   -0.111680
     20          6           0       -2.939748    1.013440    0.374569
     21          6           0       -4.312380    0.938674    0.553429
     22          6           0       -5.008530   -0.227314    0.266817
     23          6           0       -4.311717   -1.330649   -0.204134
     24          6           0       -2.941571   -1.263623   -0.396435
     25          1           0       -0.450627   -1.015688   -0.395858
     26          1           0       -2.407988    1.922387    0.609068
     27          1           0       -4.841745    1.805245    0.930174
     28          1           0       -6.079903   -0.276188    0.411832
     29          1           0       -4.835800   -2.250712   -0.430728
     30          1           0       -2.405732   -2.127876   -0.771917
 ---------------------------------------------------------------------

 SCF Done:  E(RwB97XD) =  -1532.73870666     A.U. after    1 cycles

 The electronic state is 1-A.
 Alpha  occ. eigenvalues -- -101.71556-101.70932 -19.20652 -14.50397 -14.45902
 Alpha  occ. eigenvalues --  -10.45417 -10.38742 -10.33518 -10.32317 -10.29041
 Alpha  occ. eigenvalues --  -10.28937 -10.28857 -10.28475 -10.28374 -10.27548
 Alpha  occ. eigenvalues --  -10.27042  -9.60148  -9.59543  -7.34819  -7.34164
 Alpha  occ. eigenvalues --   -7.33916  -7.33873  -7.33332  -7.33297  -1.13690
 Alpha  occ. eigenvalues --   -1.06532  -1.03648  -1.00580  -0.95502  -0.93435
 Alpha  occ. eigenvalues --   -0.88455  -0.85169  -0.84214  -0.79919  -0.77447
 Alpha  occ. eigenvalues --   -0.73341  -0.71459  -0.68171  -0.65372  -0.64206
 Alpha  occ. eigenvalues --   -0.62522  -0.60242  -0.58958  -0.57827  -0.56231
 Alpha  occ. eigenvalues --   -0.54685  -0.54046  -0.52433  -0.51644  -0.51141
 Alpha  occ. eigenvalues --   -0.50480  -0.49055  -0.48970  -0.47937  -0.46439
 Alpha  occ. eigenvalues --   -0.46202  -0.45698  -0.44541  -0.43404  -0.42728
 Alpha  occ. eigenvalues --   -0.41755  -0.39807  -0.39713  -0.38853  -0.34729
 Alpha  occ. eigenvalues --   -0.33317  -0.30631  -0.27434
 Alpha virt. eigenvalues --    0.03230   0.04673   0.05406   0.07063   0.08862
 Alpha virt. eigenvalues --    0.10269   0.13086   0.13338   0.14815   0.14985
 Alpha virt. eigenvalues --    0.16424   0.16635   0.17187   0.18188   0.18589

 Mulliken charges:
               1
     1  C   -0.275204
     2  C    0.353836
     3  O   -0.514702
     4  C    0.145615
     5  C   -0.300437
     6  H    0.168735
     7  H    0.162439
     8  H    0.165128
     9  N   -0.294732
    10  H    0.298587
    11  H    0.287127
    12  Cl  -0.050444
    13  Cl  -0.113189
    14  C   -0.378385
    15  H    0.129538
    16  H    0.137115
    17  H    0.123696
    18  N   -0.302458
    19  C    0.299692
    20  C   -0.305759
    21  C   -0.091405
    22  C   -0.191847
    23  C   -0.097355
    24  C   -0.298479
    25  H    0.228664
    26  H    0.144243
    27  H    0.142166
    28  H    0.141209
    29  H    0.143126
    30  H    0.143479
 Sum of Mulliken charges =  -0.00000

 Dipole moment (field-independent basis, Debye):
    X=              3.1063    Y=             -4.4584    Z=              7.3727  Tot=              9.1588
 Quadrupole moment (field-independent basis, Debye-Ang):
   XX=           -103.6314   YY=           -112.3896   ZZ=           -102.4265
   XY=              4.8893   XZ=              7.4124   YZ=              5.2815

  Exact polarizability: 313.840  -4.359 253.020  -0.272   3.129 191.707
 Approx polarizability: 234.295  -4.140 217.158  -1.325   2.761 165.172

 ******    1 imaginary frequencies (negative Signs) ******

                      1                      2                      3
                      A                      A                      A
 Frequencies --   -407.9130                26.9613                32.1583
 Red. masses --      5.7031                 3.9282                 4.4219
 Frc consts  --      0.5591                 0.0017                 0.0027
 IR Inten    --    665.0478                 3.0222                 1.2215

                      4                      5                      6
                      A                      A                      A
 Frequencies --     65.2585                74.6956                80.7345
 Red. masses --      6.0597                 1.2664                 2.7177
 Frc consts  --      0.0152                 0.0042                 0.0104
 IR Inten    --      2.4643                 0.5887                 0.3102

                      7                      8                      9
                      A                      A                      A
 Frequencies --     98.7443               108.7614               143.2111
 Red. masses --      3.4440                 3.9592                 2.7795
 Frc consts  --      0.0198                 0.0276                 0.0336
 IR Inten    --     13.2915                16.8477                 2.6652

                     10                     11                     12
                      A                      A                      A
 Frequencies --    175.4969               176.7075               200.4348
 Red. masses --      5.2619                 1.3156                 4.7032
 Frc consts  --      0.0955                 0.0242                 0.1113
 IR Inten    --      3.1864                 1.6451                15.9835

                     13                     14                     15
                      A                      A                      A
 Frequencies --    237.2245               256.7812               277.4584
 Red. masses --      5.3669                 4.9539                 8.4163
 Frc consts  --      0.1779                 0.1925                 0.3817
 IR Inten    --      1.7105                 3.2232                 7.4166

                     16                     17                     18
                      A                      A                      A
 Frequencies --    297.6671               323.5252               365.1215
 Red. masses --      4.7450                 4.0238                 5.1068
 Frc consts  --      0.2477                 0.2481                 0.4011
 IR Inten    --      2.0227                28.8173                20.6002

                     19                     20                     21
                      A                      A                      A
 Frequencies --    377.9885               417.5393               424.3731
 Red. masses --      6.2447                 5.7189                 3.0531
 Frc consts  --      0.5257                 0.5874                 0.3240
 IR Inten    --     35.2212                18.6652                 5.3776

                     22                     23                     24
                      A                      A                      A
 Frequencies --    443.8688               524.1489               557.8670
 Red. masses --      6.8782                 2.8204                 4.6551
 Frc consts  --      0.7984                 0.4565                 0.8536
 IR Inten    --     28.4109                21.6587                52.5985

                     25                     26                     27
                      A                      A                      A
 Frequencies --    582.5327               621.7397               637.7449
 Red. masses --      1.6058                 3.3969                 4.8698
 Frc consts  --      0.3210                 0.7737                 1.1670
 IR Inten    --    170.9961                52.5203                19.2412

                     28                     29                     30
                      A                      A                      A
 Frequencies --    672.3060               718.0211               732.0296
 Red. masses --      1.7504                 1.8719                 3.3324
 Frc consts  --      0.4661                 0.5686                 1.0521
 IR Inten    --      3.5158                68.5563               118.0302

                     31                     32                     33
                      A                      A                      A
 Frequencies --    776.3728               785.0017               813.4299
 Red. masses --      5.8765                 2.0700                 4.3059
 Frc consts  --      2.0869                 0.7516                 1.6786
 IR Inten    --    108.1597               142.2954                86.9721

                     34                     35                     36
                      A                      A                      A
 Frequencies --    858.5590               872.3584               927.0616
 Red. masses --      1.2832                 4.2533                 1.7660
 Frc consts  --      0.5573                 1.9071                 0.8942
 IR Inten    --      5.8681                11.4183                29.3486

                     37                     38                     39
                      A                      A                      A
 Frequencies --    953.2816              1001.2869              1003.8673
 Red. masses --      3.0600                 1.3549                 1.1865
 Frc consts  --      1.6384                 0.8003                 0.7045
 IR Inten    --     21.3925                 1.8955                55.7065

                     40                     41                     42
                      A                      A                      A
 Frequencies --   1017.2602              1022.7967              1038.6877
 Red. masses --      1.2929                 5.8818                 1.6455
 Frc consts  --      0.7883                 3.6252                 1.0460
 IR Inten    --      0.8132                 2.1760               317.6960

                     43                     44                     45
                      A                      A                      A
 Frequencies --   1061.8306              1063.0213              1072.1230
 Red. masses --      1.2901                 1.8874                 1.3988
 Frc consts  --      0.8570                 1.2566                 0.9473
 IR Inten    --     26.4272                10.3462                 7.4272

                     46                     47                     48
                      A                      A                      A
 Frequencies --   1084.5960              1116.6125              1134.9713
 Red. masses --      3.7666                 1.7408                 2.7193
 Frc consts  --      2.6105                 1.2788                 2.0639
 IR Inten    --     73.4039                57.9354               158.5001

                     49                     50                     51
                      A                      A                      A
 Frequencies --   1182.5169              1210.9916              1232.2720
 Red. masses --      1.1229                 1.1256                 1.3893
 Frc consts  --      0.9252                 0.9725                 1.2430
 IR Inten    --      2.0022                 9.2340                33.2659

                     52                     53                     54
                      A                      A                      A
 Frequencies --   1273.3073              1313.7589              1337.2053
 Red. masses --      2.5106                 4.8018                 4.4266
 Frc consts  --      2.3982                 4.8830                 4.6636
 IR Inten    --    563.3887               304.7313               367.7877

                     55                     56                     57
                      A                      A                      A
 Frequencies --   1349.0307              1364.2221              1401.2386
 Red. masses --      1.3343                 1.5331                 1.8615
 Frc consts  --      1.4307                 1.6811                 2.1534
 IR Inten    --     29.4361                48.5521               139.9744

                     58                     59                     60
                      A                      A                      A
 Frequencies --   1431.6486              1455.8242              1476.1805
 Red. masses --      1.7791                 1.3438                 1.5165
 Frc consts  --      2.1484                 1.6781                 1.9471
 IR Inten    --    395.3539                66.4006               159.8450

                     61                     62                     63
                      A                      A                      A
 Frequencies --   1480.8792              1495.3812              1498.0899
 Red. masses --      1.3045                 1.0388                 1.0416
 Frc consts  --      1.6855                 1.3686                 1.3773
 IR Inten    --     92.1941                35.0833                24.5097

                     64                     65                     66
                      A                      A                      A
 Frequencies --   1501.7615              1547.9466              1563.5686
 Red. masses --      1.0929                 2.4625                 1.9204
 Frc consts  --      1.4523                 3.4764                 2.7661
 IR Inten    --     97.8776               252.0823               341.5311

                     67                     68                     69
                      A                      A                      A
 Frequencies --   1631.3532              1660.4810              1668.6142
 Red. masses --      1.0998                 7.0882                 4.1263
 Frc consts  --      1.7244                11.5147                 6.7689
 IR Inten    --     93.1085               230.2725               225.1192

                     70                     71                     72
                      A                      A                      A
 Frequencies --   1682.0304              3035.9386              3075.9802
 Red. masses --      6.5260                 1.0488                 1.0331
 Frc consts  --     10.8783                 5.6953                 5.7590
 IR Inten    --    499.5085                82.5200                24.4699

                     73                     74                     75
                      A                      A                      A
 Frequencies --   3106.9401              3156.3232              3163.9708
 Red. masses --      1.0912                 1.1047                 1.0976
 Frc consts  --      6.2063                 6.4845                 6.4737
 IR Inten    --     39.0019                 5.4132                 6.9498

                     76                     77                     78
                      A                      A                      A
 Frequencies --   3178.7630              3188.8720              3197.6291
 Red. masses --      1.1060                 1.0879                 1.0882
 Frc consts  --      6.5844                 6.5178                 6.5559
 IR Inten    --      7.6652                12.0810                 1.7443

                     79                     80                     81
                      A                      A                      A
 Frequencies --   3207.3123              3221.2732              3254.1522
 Red. masses --      1.0931                 1.0979                 1.0930
 Frc consts  --      6.6252                 6.7123                 6.8192
 IR Inten    --     30.0566                23.7044                 2.3861

                     82                     83                     84
                      A                      A                      A
 Frequencies --   3512.7493              3598.5816              3616.6645
 Red. masses --      1.0504                 1.0971                 1.0761
 Frc consts  --      7.6367                 8.3707                 8.2931
 IR Inten    --     55.4134                81.4056               182.8474

 - Thermochemistry -
 -------------------
 Temperature   298.150 Kelvin.  Pressure   1.00000 Atm.
 Atom     1 has atomic number  6 and mass  12.00000

 Molecular mass:   260.04832 amu.
 Principal axes and moments of inertia in atomic units:
                           1         2         3
     Eigenvalues --  2151.695887726.272698394.30236
           X            0.99984   0.01742   0.00443
           Y           -0.01744   0.99984   0.00467
           Z           -0.00435  -0.00475   0.99998
 This molecule is an asymmetric top.
 Rotational symmetry number  1.
 Warning -- assumption of classical behavior for rotation
           may cause significant error
 Rotational temperatures (Kelvin)      0.04025     0.01121     0.01032
 Rotational constants (GHZ):           0.83875     0.23358     0.21500
    1 imaginary frequencies ignored.
 Zero-point vibrational energy     625214.3 (Joules/Mol)
                                  149.42981 (Kcal/Mol)
 Warning -- explicit consideration of  24 degrees of freedom as
           vibrations may cause significant error
 Vibrational temperatures:     38.79    46.27    93.89   107.47   116.16
          (Kelvin)            142.07   156.48   206.05   252.50   254.24
                              288.38   341.31   369.45   399.20   428.28
                              465.48   525.33   543.84   600.75   610.58
                              638.63   754.13   802.65   838.13   894.54
                              917.57   967.30  1033.07  1053.23  1117.03
                             1129.44  1170.34  1235.27  1255.13  1333.83
                             1371.56  1440.63  1444.34  1463.61  1471.58
                             1494.44  1527.74  1529.45  1542.55  1560.49
                             1606.56  1632.97  1701.38  1742.35  1772.96
                             1832.01  1890.21  1923.94  1940.95  1962.81
                             2016.07  2059.82  2094.61  2123.89  2130.65
                             2151.52  2155.42  2160.70  2227.15  2249.63
                             2347.15  2389.06  2400.76  2420.07  4368.04
                             4425.65  4470.19  4541.25  4552.25  4573.53
                             4588.08  4600.68  4614.61  4634.69  4682.00
                             5054.06  5177.56  5203.57

 Zero-point correction=                           0.238132 (Hartree/Particle)
 Thermal correction to Energy=                    0.254851
 Thermal correction to Enthalpy=                  0.255795
 Thermal correction to Gibbs Free Energy=         0.191917
 Sum of electronic and zero-point Energies=          -1532.500575
 Sum of electronic and thermal Energies=             -1532.483856
 Sum of electronic and thermal Enthalpies=           -1532.482912
 Sum of electronic and thermal Free Energies=        -1532.546790

                     E (Thermal)             CV                S
                      KCal/Mol        Cal/Mol-Kelvin    Cal/Mol-Kelvin
 Total                  159.921             60.605            134.444
 Electronic               0.000              0.000              0.000
 Translational            0.889              2.981             42.567
 Rotational               0.889              2.981             33.300
 Vibrational            158.144             54.643             58.576
 Vibration     1          0.593              1.984              6.041
 Vibration     2          0.594              1.983              5.692
 Vibration     3          0.597              1.971              4.292
 Vibration     4          0.599              1.966              4.026
 Vibration     5          0.600              1.962              3.873
 Vibration     6          0.604              1.950              3.479
 Vibration     7          0.606              1.942              3.291
 Vibration     8          0.616              1.910              2.761
 Vibration     9          0.627              1.873              2.376
 Vibration    10          0.628              1.871              2.363
 Vibration    11          0.638              1.839              2.129
 Vibration    12          0.656              1.784              1.824
 Vibration    13          0.666              1.751              1.684
 Vibration    14          0.678              1.715              1.549
 Vibration    15          0.691              1.678              1.430
 Vibration    16          0.708              1.628              1.292
 Vibration    17          0.738              1.544              1.100
 Vibration    18          0.748              1.517              1.047
 Vibration    19          0.781              1.432              0.900
 Vibration    20          0.786              1.417              0.877
 Vibration    21          0.803              1.374              0.815
 Vibration    22          0.879              1.197              0.600
 Vibration    23          0.913              1.123              0.528
 Vibration    24          0.939              1.069              0.481

 Optimization completed.
    -- Stationary point found.
 Normal termination of Gaussian 16 at Sun Feb 28 18:27:31 2021.
