 Gaussian 16, Revision A.03,
 Gaussian 16:  ES64L-G16RevA.03 25-Dec-2016

 ----------------------------------------------------------------------
 # wB97XD def2tzvp, opt=(ts, noeigen, calcfc, maxcycles=70, maxstep=8),
  freq=noraman, scrf=(iefpcm, solvent=water)
 ----------------------------------------------------------------------

 ------------------------
 1_iteration/TS-976-1.out
 ------------------------
 Symbolic Z-matrix:
 Charge =  0 Multiplicity = 1

 SCF Done:  E(RwB97XD) =  -1438.05498529     A.U. after   15 cycles
 SCF Done:  E(RwB97XD) =  -1438.05480087     A.U. after   12 cycles
 SCF Done:  E(RwB97XD) =  -1438.05530205     A.U. after   12 cycles
 SCF Done:  E(RwB97XD) =  -1438.05621805     A.U. after   12 cycles
 SCF Done:  E(RwB97XD) =  -1438.05691159     A.U. after   12 cycles
 SCF Done:  E(RwB97XD) =  -1438.05707737     A.U. after   11 cycles
 SCF Done:  E(RwB97XD) =  -1438.05708427     A.U. after   10 cycles
 SCF Done:  E(RwB97XD) =  -1438.05708470     A.U. after    8 cycles
 SCF Done:  E(RwB97XD) =  -1438.05708496     A.U. after    8 cycles
 SCF Done:  E(RwB97XD) =  -1438.05708502     A.U. after    6 cycles
 SCF Done:  E(RwB97XD) =  -1438.05708509     A.U. after    6 cycles
 Optimization completed.
    -- Stationary point found.
 Normal termination of Gaussian 16 at Sun Feb 28 19:51:47 2021.

 ---------------------------------------------------------------------
 #N Geom=AllCheck Guess=TCheck SCRF=Check GenChk RwB97XD/def2TZVP Freq
 ---------------------------------------------------------------------

 Structure from the checkpoint file:  "/beegfs/scratch/user/q/tla25/Gau-9916.chk"
 ------------------------
 1_iteration/TS-976-1.out
 ------------------------
 Charge =  0 Multiplicity = 1

                         Standard orientation:
 ---------------------------------------------------------------------
 Center     Atomic      Atomic             Coordinates (Angstroms)
 Number     Number       Type             X           Y           Z
 ---------------------------------------------------------------------
      1          6           0        0.464334   -0.518867   -0.118586
      2          6           0       -0.515154    0.393996    0.396797
      3          8           0       -0.220250    1.438889    0.983173
      4          6           0        1.806112   -0.392018    0.148031
      5          6           0        2.004555    1.453150   -2.071957
      6          1           0        1.964442    2.482606   -2.430192
      7          1           0        2.695909    0.884865   -2.690871
      8          1           0        1.006812    1.014439   -2.160566
      9          7           0        2.414674    1.371862   -0.683481
     10          1           0        1.883165    1.999768   -0.090313
     11          1           0        3.404886    1.527583   -0.544251
     12         17           0        2.875768   -1.501519   -0.670588
     13         17           0        2.395701    0.003015    1.756027
     14          1           0        0.182987   -1.221309   -0.887551
     15          6           0       -1.961313    0.074525    0.148594
     16          6           0       -2.884214    1.117514    0.137547
     17          6           0       -4.228550    0.865262   -0.078994
     18          6           0       -4.668084   -0.437789   -0.273787
     19          6           0       -3.757572   -1.484438   -0.252691
     20          6           0       -2.409977   -1.229105   -0.047978
     21          1           0       -2.532279    2.128410    0.297032
     22          1           0       -4.936157    1.684513   -0.095838
     23          1           0       -5.719430   -0.636948   -0.439062
     24          1           0       -4.097140   -2.502665   -0.393438
     25          1           0       -1.709713   -2.054229   -0.020297
 ---------------------------------------------------------------------

 SCF Done:  E(RwB97XD) =  -1438.05708509     A.U. after    1 cycles

 The electronic state is 1-A.
 Alpha  occ. eigenvalues -- -101.71604-101.71062 -19.22298 -14.47309 -10.44811
 Alpha  occ. eigenvalues --  -10.36967 -10.31350 -10.29945 -10.29656 -10.29534
 Alpha  occ. eigenvalues --  -10.29370 -10.29328 -10.29282 -10.27418  -9.60178
 Alpha  occ. eigenvalues --   -9.59640  -7.34851  -7.34318  -7.33946  -7.33910
 Alpha  occ. eigenvalues --   -7.33404  -7.33366  -1.13121  -1.04259  -1.00635
 Alpha  occ. eigenvalues --   -0.97001  -0.93814  -0.87967  -0.85583  -0.84855
 Alpha  occ. eigenvalues --   -0.78407  -0.74584  -0.70938  -0.68431  -0.63770
 Alpha  occ. eigenvalues --   -0.62583  -0.61370  -0.57765  -0.57061  -0.56428
 Alpha  occ. eigenvalues --   -0.55022  -0.54285  -0.52903  -0.51975  -0.51397
 Alpha  occ. eigenvalues --   -0.49160  -0.48959  -0.47642  -0.47495  -0.45628
 Alpha  occ. eigenvalues --   -0.44322  -0.43151  -0.42917  -0.41846  -0.39726
 Alpha  occ. eigenvalues --   -0.37695  -0.34333  -0.34219  -0.33408  -0.30110
 Alpha virt. eigenvalues --   -0.00349   0.04676   0.04972   0.07520   0.09980
 Alpha virt. eigenvalues --    0.11338   0.13419   0.13959   0.15547   0.16473
 Alpha virt. eigenvalues --    0.16550   0.17335   0.18351   0.18970   0.20000

 Mulliken charges:
               1
     1  C   -0.523482
     2  C    0.320355
     3  O   -0.493500
     4  C    0.257311
     5  C   -0.276904
     6  H    0.152158
     7  H    0.152388
     8  H    0.143229
     9  N   -0.389296
    10  H    0.277016
    11  H    0.285524
    12  Cl  -0.052905
    13  Cl  -0.051269
    14  H    0.182003
    15  C    0.144785
    16  C   -0.227245
    17  C   -0.125261
    18  C   -0.134994
    19  C   -0.142767
    20  C   -0.237523
    21  H    0.143099
    22  H    0.145136
    23  H    0.147784
    24  H    0.145523
    25  H    0.158835
 Sum of Mulliken charges =  -0.00000

 Dipole moment (field-independent basis, Debye):
    X=              1.7985    Y=              0.8429    Z=             -4.5756  Tot=              4.9881
 Quadrupole moment (field-independent basis, Debye-Ang):
   XX=            -77.0852   YY=            -89.8930   ZZ=            -98.4202
   XY=             10.2268   XZ=             -3.7867   YZ=             -4.4359

  Exact polarizability: 293.372   1.696 216.290  -1.642   8.249 165.625
 Approx polarizability: 212.399   0.816 189.166   1.741  11.688 145.296

 ******    1 imaginary frequencies (negative Signs) ******

                      1                      2                      3
                      A                      A                      A
 Frequencies --   -372.1227                34.9403                39.5546
 Red. masses --      5.3341                 3.9933                 5.5558
 Frc consts  --      0.4352                 0.0029                 0.0051
 IR Inten    --    792.3891                 0.2048                 3.8468

                      4                      5                      6
                      A                      A                      A
 Frequencies --     73.3443                91.7345               116.2657
 Red. masses --      5.6388                 2.8986                 3.0625
 Frc consts  --      0.0179                 0.0144                 0.0244
 IR Inten    --     11.6388                 2.2199                24.9520

                      7                      8                      9
                      A                      A                      A
 Frequencies --    149.9094               163.3374               170.6683
 Red. masses --      5.2517                 3.5935                 2.8630
 Frc consts  --      0.0695                 0.0565                 0.0491
 IR Inten    --      2.0900                 1.1418                 2.4922

                     10                     11                     12
                      A                      A                      A
 Frequencies --    206.6345               234.7028               275.3981
 Red. masses --      1.7432                 9.3347                 6.0785
 Frc consts  --      0.0439                 0.3030                 0.2716
 IR Inten    --      2.0059                 4.4222                19.6846

                     13                     14                     15
                      A                      A                      A
 Frequencies --    293.6752               333.7756               362.4307
 Red. masses --      3.9421                11.8421                 9.4873
 Frc consts  --      0.2003                 0.7773                 0.7343
 IR Inten    --     27.0406                 5.6031                10.4323

                     16                     17                     18
                      A                      A                      A
 Frequencies --    413.4045               421.0680               476.0710
 Red. masses --      5.0277                 2.9680                 3.8554
 Frc consts  --      0.5063                 0.3100                 0.5148
 IR Inten    --      1.9452                 0.4306                77.6209

                     19                     20                     21
                      A                      A                      A
 Frequencies --    501.1153               587.8048               635.3364
 Red. masses --      4.9801                 2.0221                 6.3486
 Frc consts  --      0.7368                 0.4116                 1.5099
 IR Inten    --     25.9662                 5.1544                 0.1109

                     22                     23                     24
                      A                      A                      A
 Frequencies --    656.6610               690.7632               714.6864
 Red. masses --      3.2498                 1.7242                 3.5567
 Frc consts  --      0.8256                 0.4847                 1.0704
 IR Inten    --    133.8663                52.3418                36.0588

                     25                     26                     27
                      A                      A                      A
 Frequencies --    722.2765               757.2648               798.4557
 Red. masses --      1.5120                 2.2131                 6.5433
 Frc consts  --      0.4647                 0.7477                 2.4578
 IR Inten    --     50.9940               193.5159               151.5953

                     28                     29                     30
                      A                      A                      A
 Frequencies --    834.0447               880.4875               941.3533
 Red. masses --      3.1066                 1.2502                 3.8904
 Frc consts  --      1.2733                 0.5710                 2.0312
 IR Inten    --     17.8373                 0.5034               114.4712

                     31                     32                     33
                      A                      A                      A
 Frequencies --    971.2795               973.6648              1018.0379
 Red. masses --      1.1662                 1.4805                 1.3888
 Frc consts  --      0.6482                 0.8269                 0.8480
 IR Inten    --    109.6327                 1.7877                 1.6069

                     34                     35                     36
                      A                      A                      A
 Frequencies --   1023.7982              1026.0038              1035.4073
 Red. masses --      1.1598                 5.8221                 1.3207
 Frc consts  --      0.7162                 3.6110                 0.8342
 IR Inten    --     52.3739                 2.9500                 0.8044

                     37                     38                     39
                      A                      A                      A
 Frequencies --   1056.7050              1095.2774              1097.9670
 Red. masses --      2.3774                 3.7393                 2.4353
 Frc consts  --      1.5641                 2.6430                 1.7298
 IR Inten    --     22.4151                41.1004                29.0571

                     40                     41                     42
                      A                      A                      A
 Frequencies --   1115.7661              1184.3228              1188.4197
 Red. masses --      1.7758                 1.1367                 1.4223
 Frc consts  --      1.3025                 0.9394                 1.1835
 IR Inten    --      4.2595                 2.8604                15.7955

                     43                     44                     45
                      A                      A                      A
 Frequencies --   1202.4810              1245.2722              1310.5266
 Red. masses --      1.1345                 1.8453                 3.1522
 Frc consts  --      0.9665                 1.6859                 3.1898
 IR Inten    --     25.8636               465.1127                32.7015

                     46                     47                     48
                      A                      A                      A
 Frequencies --   1337.4855              1343.0620              1354.3028
 Red. masses --      3.0272                 1.6183                 1.5337
 Frc consts  --      3.1906                 1.7199                 1.6573
 IR Inten    --     13.9758                 0.6058                14.1956

                     49                     50                     51
                      A                      A                      A
 Frequencies --   1455.3460              1471.5619              1487.9142
 Red. masses --      1.5943                 1.9441                 1.0515
 Frc consts  --      1.9895                 2.4805                 1.3716
 IR Inten    --    739.0438               792.9136                15.1435

                     52                     53                     54
                      A                      A                      A
 Frequencies --   1495.4996              1506.6485              1539.6401
 Red. masses --      2.3732                 1.0345                 2.3183
 Frc consts  --      3.1273                 1.3836                 3.2378
 IR Inten    --    314.7916                 1.3911                19.0996

                     55                     56                     57
                      A                      A                      A
 Frequencies --   1636.9180              1646.2572              1671.0633
 Red. masses --      1.5484                 2.5391                 5.9300
 Frc consts  --      2.4445                 4.0544                 9.7564
 IR Inten    --    244.3837                16.1760                66.8095

                     58                     59                     60
                      A                      A                      A
 Frequencies --   1678.6584              3049.6315              3118.3115
 Red. masses --      7.1662                 1.0360                 1.1017
 Frc consts  --     11.8978                 5.6766                 6.3120
 IR Inten    --    175.5484                37.1008                16.6889

                     61                     62                     63
                      A                      A                      A
 Frequencies --   3160.1979              3196.0304              3203.3645
 Red. masses --      1.1038                 1.0860                 1.0885
 Frc consts  --      6.4948                 6.5357                 6.5810
 IR Inten    --     14.9200                 0.7015                 3.9153

                     64                     65                     66
                      A                      A                      A
 Frequencies --   3211.3557              3218.6369              3224.4544
 Red. masses --      1.0920                 1.0946                 1.0984
 Frc consts  --      6.6353                 6.6809                 6.7289
 IR Inten    --     15.4302                23.9182                18.4848

                     67                     68                     69
                      A                      A                      A
 Frequencies --   3243.5789              3520.4229              3619.6411
 Red. masses --      1.0895                 1.0514                 1.0962
 Frc consts  --      6.7534                 7.6771                 8.4623
 IR Inten    --      1.4724                35.5776                91.1110

 - Thermochemistry -
 -------------------
 Temperature   298.150 Kelvin.  Pressure   1.00000 Atm.
 Atom     1 has atomic number  6 and mass  12.00000

 Molecular mass:   231.02177 amu.
 Principal axes and moments of inertia in atomic units:
                           1         2         3
     Eigenvalues --  1770.319546629.896006838.17771
           X            0.99979   0.01578  -0.01279
           Y           -0.01781   0.98392  -0.17772
           Z            0.00978   0.17791   0.98400
 This molecule is an asymmetric top.
 Rotational symmetry number  1.
 Warning -- assumption of classical behavior for rotation
           may cause significant error
 Rotational temperatures (Kelvin)      0.04893     0.01306     0.01267
 Rotational constants (GHZ):           1.01944     0.27221     0.26392
    1 imaginary frequencies ignored.
 Zero-point vibrational energy     505494.5 (Joules/Mol)
                                  120.81608 (Kcal/Mol)
 Warning -- explicit consideration of  19 degrees of freedom as
           vibrations may cause significant error
 Vibrational temperatures:     50.27    56.91   105.53   131.99   167.28
          (Kelvin)            215.69   235.01   245.55   297.30   337.68
                              396.24   422.53   480.23   521.46   594.80
                              605.82   684.96   720.99   845.72   914.11
                              944.79   993.85  1028.27  1039.19  1089.54
                             1148.80  1200.00  1266.83  1354.40  1397.45
                             1400.89  1464.73  1473.02  1476.19  1489.72
                             1520.36  1575.86  1579.73  1605.34  1703.98
                             1709.87  1730.10  1791.67  1885.56  1924.34
                             1932.37  1948.54  2093.92  2117.25  2140.78
                             2151.69  2167.73  2215.20  2355.16  2368.60
                             2404.29  2415.22  4387.74  4486.55  4546.82
                             4598.37  4608.93  4620.42  4630.90  4639.27
                             4666.79  5065.10  5207.86

 Zero-point correction=                           0.192533 (Hartree/Particle)
 Thermal correction to Energy=                    0.206495
 Thermal correction to Enthalpy=                  0.207440
 Thermal correction to Gibbs Free Energy=         0.150010
 Sum of electronic and zero-point Energies=          -1437.864552
 Sum of electronic and thermal Energies=             -1437.850590
 Sum of electronic and thermal Enthalpies=           -1437.849646
 Sum of electronic and thermal Free Energies=        -1437.907075

                     E (Thermal)             CV                S
                      KCal/Mol        Cal/Mol-Kelvin    Cal/Mol-Kelvin
 Total                  129.578             50.696            120.871
 Electronic               0.000              0.000              0.000
 Translational            0.889              2.981             42.214
 Rotational               0.889              2.981             32.751
 Vibrational            127.800             44.735             45.906
 Vibration     1          0.594              1.983              5.527
 Vibration     2          0.594              1.981              5.281
 Vibration     3          0.599              1.967              4.062
 Vibration     4          0.602              1.955              3.623
 Vibration     5          0.608              1.936              3.162
 Vibration     6          0.618              1.903              2.673
 Vibration     7          0.623              1.887              2.511
 Vibration     8          0.626              1.879              2.428
 Vibration     9          0.641              1.830              2.073
 Vibration    10          0.655              1.788              1.843
 Vibration    11          0.677              1.719              1.562
 Vibration    12          0.688              1.686              1.453
 Vibration    13          0.715              1.608              1.242
 Vibration    14          0.736              1.550              1.112
 Vibration    15          0.777              1.441              0.915
 Vibration    16          0.784              1.424              0.888
 Vibration    17          0.833              1.303              0.721
 Vibration    18          0.856              1.248              0.655
 Vibration    19          0.945              1.058              0.471

 Optimization completed.
    -- Stationary point found.
 Normal termination of Gaussian 16 at Sun Feb 28 20:25:38 2021.
