 Gaussian 16, Revision A.03,
 Gaussian 16:  ES64L-G16RevA.03 25-Dec-2016

 ----------------------------------------------------------------------
 # wB97XD def2tzvp, opt=(ts, noeigen, calcfc, maxcycles=70, maxstep=1),
  freq=noraman, scrf=(iefpcm, solvent=water)
 ----------------------------------------------------------------------

 ------------------------
 0_iteration/TS-913-0.out
 ------------------------
 Symbolic Z-matrix:
 Charge =  0 Multiplicity = 1

 SCF Done:  E(RwB97XD) =  -1246.31854717     A.U. after   15 cycles
 SCF Done:  E(RwB97XD) =  -1246.31844254     A.U. after   10 cycles
 SCF Done:  E(RwB97XD) =  -1246.31834433     A.U. after   10 cycles
 SCF Done:  E(RwB97XD) =  -1246.31825116     A.U. after   10 cycles
 SCF Done:  E(RwB97XD) =  -1246.31816316     A.U. after   10 cycles
 SCF Done:  E(RwB97XD) =  -1246.31807953     A.U. after   10 cycles
 SCF Done:  E(RwB97XD) =  -1246.31800056     A.U. after   10 cycles
 SCF Done:  E(RwB97XD) =  -1246.31792631     A.U. after   10 cycles
 SCF Done:  E(RwB97XD) =  -1246.31785725     A.U. after   10 cycles
 SCF Done:  E(RwB97XD) =  -1246.31779340     A.U. after   10 cycles
 SCF Done:  E(RwB97XD) =  -1246.32087317     A.U. after    9 cycles
 SCF Done:  E(RwB97XD) =  -1246.32090017     A.U. after   10 cycles
 SCF Done:  E(RwB97XD) =  -1246.32091713     A.U. after   10 cycles
 SCF Done:  E(RwB97XD) =  -1246.32092352     A.U. after   10 cycles
 SCF Done:  E(RwB97XD) =  -1246.32092356     A.U. after    9 cycles
 SCF Done:  E(RwB97XD) =  -1246.32092239     A.U. after    9 cycles
 SCF Done:  E(RwB97XD) =  -1246.32092368     A.U. after    8 cycles
 SCF Done:  E(RwB97XD) =  -1246.32092379     A.U. after    7 cycles
 SCF Done:  E(RwB97XD) =  -1246.32092387     A.U. after    7 cycles
 Optimization completed.
    -- Stationary point found.
 Normal termination of Gaussian 16 at Sat Feb 27 22:07:17 2021.

 ---------------------------------------------------------------------
 #N Geom=AllCheck Guess=TCheck SCRF=Check GenChk RwB97XD/def2TZVP Freq
 ---------------------------------------------------------------------

 Structure from the checkpoint file:  "/beegfs/scratch/user/q/tla25/Gau-28794.chk"
 ------------------------
 0_iteration/TS-913-0.out
 ------------------------
 Charge =  0 Multiplicity = 1

                         Standard orientation:
 ---------------------------------------------------------------------
 Center     Atomic      Atomic             Coordinates (Angstroms)
 Number     Number       Type             X           Y           Z
 ---------------------------------------------------------------------
      1          6           0        1.065381   -0.015775   -0.026282
      2          6           0        2.048793    1.003983    0.129388
      3          8           0        1.941069    2.198657   -0.133560
      4          6           0       -0.246108    0.179201   -0.455096
      5          6           0       -2.766140    0.596039    1.162651
      6          1           0       -3.216733   -0.183742    0.550530
      7          1           0       -3.217682    0.572093    2.155707
      8          1           0       -2.965672    1.564474    0.708931
      9          7           0       -1.323109    0.378482    1.222966
     10          1           0       -0.846975    1.140593    1.692060
     11          1           0       -1.097640   -0.475628    1.720087
     12         17           0       -1.094569   -1.229462   -1.102255
     13          6           0       -0.659161    1.443642   -1.146279
     14          1           0       -0.154646    1.499281   -2.111776
     15          1           0       -1.733266    1.446681   -1.316109
     16          1           0       -0.362454    2.310008   -0.562602
     17         17           0        1.545443   -1.592552    0.582124
     18          1           0        3.006832    0.619302    0.526822
 ---------------------------------------------------------------------

 SCF Done:  E(RwB97XD) =  -1246.32092387     A.U. after    1 cycles

 The electronic state is 1-A.
 Alpha  occ. eigenvalues -- -101.70634-101.69407 -19.22194 -14.48211 -10.41464
 Alpha  occ. eigenvalues --  -10.36111 -10.32106 -10.31829 -10.29169  -9.59230
 Alpha  occ. eigenvalues --   -9.57940  -7.33871  -7.33027  -7.32962  -7.32574
 Alpha  occ. eigenvalues --   -7.31730  -7.31710  -1.12642  -1.04182  -0.99626
 Alpha  occ. eigenvalues --   -0.95034  -0.87028  -0.80410  -0.78866  -0.72784
 Alpha  occ. eigenvalues --   -0.63161  -0.62283  -0.57699  -0.57145  -0.56030
 Alpha  occ. eigenvalues --   -0.54436  -0.52406  -0.50388  -0.49011  -0.48187
 Alpha  occ. eigenvalues --   -0.47975  -0.47086  -0.45013  -0.42297  -0.41363
 Alpha  occ. eigenvalues --   -0.39409  -0.38627  -0.33472  -0.28629
 Alpha virt. eigenvalues --    0.01905   0.06940   0.10352   0.12989   0.13749
 Alpha virt. eigenvalues --    0.14215   0.15134   0.16920   0.17592   0.19051
 Alpha virt. eigenvalues --    0.19355   0.20144   0.21779   0.22319   0.23025

 Mulliken charges:
               1
     1  C   -0.018811
     2  C    0.090523
     3  O   -0.478508
     4  C    0.088716
     5  C   -0.284535
     6  H    0.148157
     7  H    0.155615
     8  H    0.159791
     9  N   -0.373896
    10  H    0.286212
    11  H    0.283172
    12  Cl  -0.084330
    13  C   -0.366940
    14  H    0.159514
    15  H    0.155666
    16  H    0.154129
    17  Cl  -0.160529
    18  H    0.086054
 Sum of Mulliken charges =   0.00000

 Dipole moment (field-independent basis, Debye):
    X=             -6.9504    Y=             -0.0102    Z=              3.2752  Tot=              7.6834
 Quadrupole moment (field-independent basis, Debye-Ang):
   XX=            -66.8030   YY=            -77.9399   ZZ=            -62.1715
   XY=             -8.6715   XZ=             -4.1500   YZ=              1.0643

  Exact polarizability: 174.429   9.374 141.970  -1.435  -1.869 113.375
 Approx polarizability: 129.805   7.104 124.219  -0.080  -1.410  98.997

 ******    1 imaginary frequencies (negative Signs) ******

                      1                      2                      3
                      A                      A                      A
 Frequencies --   -349.7852                46.8471                73.9629
 Red. masses --      6.0360                 6.4774                 1.9829
 Frc consts  --      0.4351                 0.0084                 0.0064
 IR Inten    --    790.7831                 2.1546                 3.0830

                      4                      5                      6
                      A                      A                      A
 Frequencies --    110.8950               163.5091               196.5412
 Red. masses --      4.7933                 1.3562                 6.5008
 Frc consts  --      0.0347                 0.0214                 0.1480
 IR Inten    --      5.7562                 1.5369                19.5886

                      7                      8                      9
                      A                      A                      A
 Frequencies --    215.5834               218.1462               230.5081
 Red. masses --      3.6802                 2.9690                 2.5542
 Frc consts  --      0.1008                 0.0832                 0.0800
 IR Inten    --     13.7851                10.5622                 3.7684

                     10                     11                     12
                      A                      A                      A
 Frequencies --    262.7674               288.6464               348.1402
 Red. masses --      2.0232                 2.0975                 2.5870
 Frc consts  --      0.0823                 0.1030                 0.1847
 IR Inten    --      2.1665                 8.0589                 8.7341

                     13                     14                     15
                      A                      A                      A
 Frequencies --    363.5496               415.4672               505.8976
 Red. masses --      3.5483                 5.8701                 5.7504
 Frc consts  --      0.2763                 0.5970                 0.8671
 IR Inten    --      3.7923                 2.6239                38.6476

                     16                     17                     18
                      A                      A                      A
 Frequencies --    513.5632               589.4581               651.8380
 Red. masses --      6.1821                 4.4040                 1.4375
 Frc consts  --      0.9607                 0.9016                 0.3599
 IR Inten    --    155.2598                90.3315                64.1556

                     19                     20                     21
                      A                      A                      A
 Frequencies --    865.5429               999.3154              1016.8639
 Red. masses --      3.2214                 1.7264                 1.3347
 Frc consts  --      1.4219                 1.0157                 0.8131
 IR Inten    --     24.0650                92.6294               161.0987

                     22                     23                     24
                      A                      A                      A
 Frequencies --   1031.8548              1033.0389              1056.0315
 Red. masses --      1.4276                 1.4472                 1.7522
 Frc consts  --      0.8956                 0.9099                 1.1513
 IR Inten    --     60.8261                 6.7801               101.7627

                     25                     26                     27
                      A                      A                      A
 Frequencies --   1074.4268              1126.1725              1217.6798
 Red. masses --      3.2215                 2.1592                 1.4375
 Frc consts  --      2.1911                 1.6134                 1.2558
 IR Inten    --     60.7892                37.2187                15.7181

                     28                     29                     30
                      A                      A                      A
 Frequencies --   1224.7288              1346.0050              1402.5001
 Red. masses --      4.2196                 1.3152                 2.2754
 Frc consts  --      3.7290                 1.4039                 2.6370
 IR Inten    --    110.6004                 2.9462              1066.3780

                     31                     32                     33
                      A                      A                      A
 Frequencies --   1428.8437              1440.9228              1461.8063
 Red. masses --      1.5577                 1.3166                 1.2498
 Frc consts  --      1.8738                 1.6106                 1.5736
 IR Inten    --    285.2945                42.1849                85.2783

                     34                     35                     36
                      A                      A                      A
 Frequencies --   1468.7541              1485.9532              1495.4884
 Red. masses --      1.0557                 1.1127                 1.0600
 Frc consts  --      1.3418                 1.4475                 1.3968
 IR Inten    --      8.1085                96.2882                22.2660

                     37                     38                     39
                      A                      A                      A
 Frequencies --   1505.2978              1642.2193              1692.3015
 Red. masses --      1.0334                 1.0894                 7.4424
 Frc consts  --      1.3797                 1.7311                12.5580
 IR Inten    --     25.6008                54.7446               523.3368

                     40                     41                     42
                      A                      A                      A
 Frequencies --   2939.7264              3065.0913              3080.7628
 Red. masses --      1.0823                 1.0356                 1.0376
 Frc consts  --      5.5107                 5.7324                 5.8025
 IR Inten    --    168.9619                48.0187                 7.0275

                     43                     44                     45
                      A                      A                      A
 Frequencies --   3141.8960              3157.3431              3168.9762
 Red. masses --      1.1018                 1.0996                 1.1058
 Frc consts  --      6.4084                 6.4587                 6.5428
 IR Inten    --     13.6826                10.8367                13.2580

                     46                     47                     48
                      A                      A                      A
 Frequencies --   3191.7995              3523.1560              3604.8073
 Red. masses --      1.1041                 1.0509                 1.0962
 Frc consts  --      6.6269                 7.6854                 8.3929
 IR Inten    --      0.9946                24.0525                44.4834

 - Thermochemistry -
 -------------------
 Temperature   298.150 Kelvin.  Pressure   1.00000 Atm.
 Atom     1 has atomic number  6 and mass  12.00000

 Molecular mass:   169.00612 amu.
 Principal axes and moments of inertia in atomic units:
                           1         2         3
     Eigenvalues --  1442.140721942.456202471.66668
           X            0.99760  -0.05580  -0.04107
           Y            0.05514   0.99833  -0.01695
           Z            0.04195   0.01464   0.99901
 This molecule is an asymmetric top.
 Rotational symmetry number  1.
 Warning -- assumption of classical behavior for rotation
           may cause significant error
 Rotational temperatures (Kelvin)      0.06006     0.04459     0.03504
 Rotational constants (GHZ):           1.25143     0.92910     0.73017
    1 imaginary frequencies ignored.
 Zero-point vibrational energy     365367.2 (Joules/Mol)
                                   87.32486 (Kcal/Mol)
 Warning -- explicit consideration of  16 degrees of freedom as
           vibrations may cause significant error
 Vibrational temperatures:     67.40   106.42   159.55   235.25   282.78
          (Kelvin)            310.18   313.86   331.65   378.06   415.30
                              500.90   523.07   597.76   727.87   738.90
                              848.10   937.85  1245.32  1437.79  1463.04
                             1484.61  1486.31  1519.39  1545.86  1620.31
                             1751.97  1762.11  1936.60  2017.88  2055.79
                             2073.17  2103.21  2113.21  2137.96  2151.67
                             2165.79  2362.79  2434.84  4229.61  4409.98
                             4432.53  4520.49  4542.71  4559.45  4592.29
                             5069.04  5186.51

 Zero-point correction=                           0.139161 (Hartree/Particle)
 Thermal correction to Energy=                    0.150116
 Thermal correction to Enthalpy=                  0.151060
 Thermal correction to Gibbs Free Energy=         0.101784
 Sum of electronic and zero-point Energies=          -1246.181763
 Sum of electronic and thermal Energies=             -1246.170808
 Sum of electronic and thermal Enthalpies=           -1246.169864
 Sum of electronic and thermal Free Energies=        -1246.219140

                     E (Thermal)             CV                S
                      KCal/Mol        Cal/Mol-Kelvin    Cal/Mol-Kelvin
 Total                   94.199             37.575            103.709
 Electronic               0.000              0.000              0.000
 Translational            0.889              2.981             41.282
 Rotational               0.889              2.981             30.316
 Vibrational             92.421             31.613             32.110
 Vibration     1          0.595              1.979              4.946
 Vibration     2          0.599              1.966              4.045
 Vibration     3          0.607              1.940              3.253
 Vibration     4          0.623              1.887              2.509
 Vibration     5          0.636              1.845              2.165
 Vibration     6          0.645              1.817              1.996
 Vibration     7          0.646              1.813              1.974
 Vibration     8          0.652              1.794              1.875
 Vibration     9          0.670              1.741              1.643
 Vibration    10          0.685              1.695              1.482
 Vibration    11          0.726              1.579              1.175
 Vibration    12          0.737              1.547              1.107
 Vibration    13          0.779              1.437              0.908
 Vibration    14          0.861              1.237              0.644
 Vibration    15          0.869              1.220              0.625
 Vibration    16          0.947              1.054              0.468

 Optimization completed.
    -- Stationary point found.
 Normal termination of Gaussian 16 at Sat Feb 27 22:16:51 2021.
