 Gaussian 16, Revision A.03,
 Gaussian 16:  ES64L-G16RevA.03 25-Dec-2016

 ----------------------------------------------------------------------
 # wB97XD def2tzvp, opt=(ts, noeigen, calcfc, maxcycles=70, maxstep=1),
  freq=noraman, scrf=(iefpcm, solvent=water)
 ----------------------------------------------------------------------

 ------------------------
 0_iteration/TS-949-0.out
 ------------------------
 Symbolic Z-matrix:
 Charge =  0 Multiplicity = 1

 SCF Done:  E(RwB97XD) =  -5989.29339819     A.U. after   16 cycles
 SCF Done:  E(RwB97XD) =  -5989.29335985     A.U. after   12 cycles
 SCF Done:  E(RwB97XD) =  -5989.29335718     A.U. after   11 cycles
 SCF Done:  E(RwB97XD) =  -5989.29339146     A.U. after   12 cycles
 SCF Done:  E(RwB97XD) =  -5989.29344697     A.U. after   12 cycles
 SCF Done:  E(RwB97XD) =  -5989.29352839     A.U. after   11 cycles
 SCF Done:  E(RwB97XD) =  -5989.29360998     A.U. after   11 cycles
 SCF Done:  E(RwB97XD) =  -5989.29369655     A.U. after   11 cycles
 SCF Done:  E(RwB97XD) =  -5989.29379066     A.U. after   11 cycles
 SCF Done:  E(RwB97XD) =  -5989.29389257     A.U. after   10 cycles
 SCF Done:  E(RwB97XD) =  -5989.29677626     A.U. after   10 cycles
 SCF Done:  E(RwB97XD) =  -5989.29678100     A.U. after   10 cycles
 SCF Done:  E(RwB97XD) =  -5989.29677211     A.U. after   10 cycles
 SCF Done:  E(RwB97XD) =  -5989.29677971     A.U. after   11 cycles
 SCF Done:  E(RwB97XD) =  -5989.29677565     A.U. after   10 cycles
 SCF Done:  E(RwB97XD) =  -5989.29677952     A.U. after   10 cycles
 SCF Done:  E(RwB97XD) =  -5989.29677593     A.U. after   10 cycles
 SCF Done:  E(RwB97XD) =  -5989.29678243     A.U. after   10 cycles
 SCF Done:  E(RwB97XD) =  -5989.29678268     A.U. after    8 cycles
 Optimization completed.
    -- Stationary point found.
 Normal termination of Gaussian 16 at Sun Feb 28 13:07:20 2021.

 ---------------------------------------------------------------------
 #N Geom=AllCheck Guess=TCheck SCRF=Check GenChk RwB97XD/def2TZVP Freq
 ---------------------------------------------------------------------

 Structure from the checkpoint file:  "/beegfs/scratch/user/q/tla25/Gau-77760.chk"
 ------------------------
 0_iteration/TS-949-0.out
 ------------------------
 Charge =  0 Multiplicity = 1

                         Standard orientation:
 ---------------------------------------------------------------------
 Center     Atomic      Atomic             Coordinates (Angstroms)
 Number     Number       Type             X           Y           Z
 ---------------------------------------------------------------------
      1          6           0        0.599456    0.230074   -0.226574
      2          6           0        0.522924    1.695140   -0.119336
      3          8           0        1.518889    2.406687   -0.232159
      4          6           0       -0.409495   -0.675154    0.044609
      5          6           0        0.172599   -0.553622    2.765620
      6          1           0       -0.122802   -0.335812    3.791159
      7          1           0        0.651335   -1.529323    2.724462
      8          1           0        0.874254    0.207489    2.425953
      9          7           0       -0.983099   -0.545507    1.877306
     10          1           0       -1.629496   -1.303485    2.068614
     11          1           0       -1.488131    0.331598    1.945136
     12         17           0       -0.063015   -2.383160   -0.026146
     13         35           0       -2.213216   -0.408721   -0.745840
     14         35           0        2.381746   -0.404142   -0.457037
     15          7           0       -0.680368    2.258698    0.191456
     16          6           0       -0.810124    3.699964    0.237315
     17          1           0       -1.518782    1.746462   -0.019090
     18          1           0       -1.830177    3.941587    0.528850
     19          1           0       -0.126486    4.117377    0.975136
     20          1           0       -0.595988    4.163783   -0.728906
 ---------------------------------------------------------------------

 SCF Done:  E(RwB97XD) =  -5989.29678268     A.U. after    1 cycles

 The electronic state is 1-A.
 Alpha  occ. eigenvalues -- -483.14705-483.12562-101.72205 -62.69550 -62.67389
 Alpha  occ. eigenvalues --  -56.48675 -56.48307 -56.48296 -56.46518 -56.46147
 Alpha  occ. eigenvalues --  -56.46137 -19.20982 -14.50341 -14.45338 -10.45884
 Alpha  occ. eigenvalues --  -10.39236 -10.32487 -10.32396 -10.30847  -9.60778
 Alpha  occ. eigenvalues --   -8.83650  -8.81504  -7.35473  -7.34537  -7.34489
 Alpha  occ. eigenvalues --   -6.65821  -6.64662  -6.64625  -6.63693  -6.62504
 Alpha  occ. eigenvalues --   -6.62477  -2.76195  -2.75878  -2.75847  -2.74911
 Alpha  occ. eigenvalues --   -2.74909  -2.74075  -2.73731  -2.73709  -2.72748
 Alpha  occ. eigenvalues --   -2.72747  -1.14120  -1.06189  -1.02105  -1.00434
 Alpha  occ. eigenvalues --   -0.91562  -0.89859  -0.83152  -0.79844  -0.78998
 Alpha  occ. eigenvalues --   -0.70338  -0.66773  -0.64701  -0.60537  -0.58736
 Alpha  occ. eigenvalues --   -0.56939  -0.56081  -0.53905  -0.53537  -0.51408
 Alpha  occ. eigenvalues --   -0.49201  -0.48884  -0.47789  -0.47163  -0.46020
 Alpha  occ. eigenvalues --   -0.42788  -0.41434  -0.39722  -0.38785  -0.38619
 Alpha  occ. eigenvalues --   -0.37074  -0.34670  -0.33876  -0.28328
 Alpha virt. eigenvalues --    0.00502   0.04057   0.05243   0.09998   0.12783
 Alpha virt. eigenvalues --    0.13414   0.14052   0.15287   0.15947   0.17200
 Alpha virt. eigenvalues --    0.17629   0.19353   0.20100   0.20883   0.21273

 Mulliken charges:
               1
     1  C   -0.252635
     2  C    0.323491
     3  O   -0.504222
     4  C    0.112618
     5  C   -0.293947
     6  H    0.168569
     7  H    0.162095
     8  H    0.163775
     9  N   -0.316882
    10  H    0.301192
    11  H    0.286232
    12  Cl  -0.020839
    13  Br  -0.086523
    14  Br  -0.106266
    15  N   -0.327256
    16  C   -0.254181
    17  H    0.240595
    18  H    0.142191
    19  H    0.134556
    20  H    0.127437
 Sum of Mulliken charges =   0.00000

 Dipole moment (field-independent basis, Debye):
    X=             -8.2022    Y=             -2.3641    Z=              6.8114  Tot=             10.9206
 Quadrupole moment (field-independent basis, Debye-Ang):
   XX=           -101.4261   YY=            -99.0249   ZZ=            -85.3126
   XY=            -11.1852   XZ=             -2.9730   YZ=             -2.0602

  Exact polarizability: 218.567   5.883 199.007  -3.836  -6.991 163.373
 Approx polarizability: 179.504   4.157 161.323  -3.876  -4.300 138.684

 ******    1 imaginary frequencies (negative Signs) ******

                      1                      2                      3
                      A                      A                      A
 Frequencies --   -383.3147                38.6305                64.2813
 Red. masses --      5.5578                 6.5799                 3.5375
 Frc consts  --      0.4811                 0.0058                 0.0086
 IR Inten    --    566.6187                 8.3907                11.2439

                      4                      5                      6
                      A                      A                      A
 Frequencies --     72.3374               103.2823               129.7731
 Red. masses --      3.7158                 2.7979                 4.3669
 Frc consts  --      0.0115                 0.0176                 0.0433
 IR Inten    --      0.9695                 4.6322                 4.9082

                      7                      8                      9
                      A                      A                      A
 Frequencies --    148.8062               153.5127               167.9230
 Red. masses --      1.2613                 3.1977                 1.5660
 Frc consts  --      0.0165                 0.0444                 0.0260
 IR Inten    --      5.3775                 0.4725                 0.5323

                     10                     11                     12
                      A                      A                      A
 Frequencies --    175.9995               181.9139               220.3959
 Red. masses --      9.4879                 3.5445                 7.0173
 Frc consts  --      0.1732                 0.0691                 0.2008
 IR Inten    --      5.5650                 6.1515                 1.2034

                     13                     14                     15
                      A                      A                      A
 Frequencies --    239.4297               267.5786               287.0872
 Red. masses --      5.5258                 5.1050                 6.6831
 Frc consts  --      0.1866                 0.2154                 0.3245
 IR Inten    --     17.8019                23.9977                12.2259

                     16                     17                     18
                      A                      A                      A
 Frequencies --    305.7318               337.1929               403.1959
 Red. masses --      4.4748                 5.2402                 8.9266
 Frc consts  --      0.2464                 0.3510                 0.8550
 IR Inten    --      1.1834                25.2132                33.4111

                     19                     20                     21
                      A                      A                      A
 Frequencies --    496.1039               526.0180               644.1784
 Red. masses --      1.5780                 3.4343                 1.9301
 Frc consts  --      0.2288                 0.5599                 0.4719
 IR Inten    --     39.3962               247.3568                63.8209

                     22                     23                     24
                      A                      A                      A
 Frequencies --    698.6339               752.7759               778.5627
 Red. masses --      3.9380                 3.5172                 9.6123
 Frc consts  --      1.1325                 1.1743                 3.4329
 IR Inten    --    248.9686                67.5483                47.6489

                     25                     26                     27
                      A                      A                      A
 Frequencies --    878.5423               955.9644              1003.8794
 Red. masses --      5.1979                 3.6406                 1.0964
 Frc consts  --      2.3638                 1.9602                 0.6510
 IR Inten    --     41.2397                 1.3391                27.1083

                     28                     29                     30
                      A                      A                      A
 Frequencies --   1052.9160              1078.7761              1142.5937
 Red. masses --      1.1239                 5.1168                 2.4384
 Frc consts  --      0.7341                 3.5084                 1.8756
 IR Inten    --     77.2181                57.2373                 5.5403

                     31                     32                     33
                      A                      A                      A
 Frequencies --   1155.8262              1185.3299              1227.2798
 Red. masses --      1.7616                 1.7487                 1.4052
 Frc consts  --      1.3866                 1.4476                 1.2470
 IR Inten    --      4.1855                66.5411                30.9094

                     34                     35                     36
                      A                      A                      A
 Frequencies --   1291.2260              1345.7874              1400.8310
 Red. masses --      2.9111                 1.3238                 6.3318
 Frc consts  --      2.8596                 1.4126                 7.3206
 IR Inten    --    599.9301                 1.4217               721.2497

                     37                     38                     39
                      A                      A                      A
 Frequencies --   1458.1805              1460.6896              1478.5355
 Red. masses --      1.1883                 1.2236                 1.0561
 Frc consts  --      1.4886                 1.5382                 1.3603
 IR Inten    --     15.1801                16.5044                22.6052

                     40                     41                     42
                      A                      A                      A
 Frequencies --   1491.7665              1499.9981              1502.8000
 Red. masses --      1.0434                 1.0323                 1.0760
 Frc consts  --      1.3681                 1.3685                 1.4318
 IR Inten    --     26.1095                10.9808                13.3924

                     43                     44                     45
                      A                      A                      A
 Frequencies --   1559.7555              1632.0324              1675.9329
 Red. masses --      1.6516                 1.1002                 8.1809
 Frc consts  --      2.3674                 1.7266                13.5382
 IR Inten    --    384.6150               102.6475               657.6148

                     46                     47                     48
                      A                      A                      A
 Frequencies --   3049.3714              3075.6510              3123.6849
 Red. masses --      1.0412                 1.0327                 1.0958
 Frc consts  --      5.7046                 5.7559                 6.2996
 IR Inten    --     79.8596                22.1088                35.4561

                     49                     50                     51
                      A                      A                      A
 Frequencies --   3155.8539              3163.0500              3175.4806
 Red. masses --      1.1052                 1.1043                 1.1061
 Frc consts  --      6.4851                 6.5092                 6.5714
 IR Inten    --      6.4640                20.2059                 8.1985

                     52                     53                     54
                      A                      A                      A
 Frequencies --   3515.9329              3601.7438              3646.1773
 Red. masses --      1.0504                 1.0972                 1.0768
 Frc consts  --      7.6503                 8.3861                 8.4348
 IR Inten    --     64.4424                69.7621               138.5453

 - Thermochemistry -
 -------------------
 Temperature   298.150 Kelvin.  Pressure   1.00000 Atm.
 Atom     1 has atomic number  6 and mass  12.00000

 Molecular mass:   305.87701 amu.
 Principal axes and moments of inertia in atomic units:
                           1         2         3
     Eigenvalues --  3204.224124149.181005638.97362
           X            0.99886  -0.04597  -0.01296
           Y            0.04577   0.99883  -0.01566
           Z            0.01367   0.01505   0.99979
 This molecule is an asymmetric top.
 Rotational symmetry number  1.
 Warning -- assumption of classical behavior for rotation
           may cause significant error
 Rotational temperatures (Kelvin)      0.02703     0.02087     0.01536
 Rotational constants (GHZ):           0.56324     0.43496     0.32005
    1 imaginary frequencies ignored.
 Zero-point vibrational energy     383875.3 (Joules/Mol)
                                   91.74839 (Kcal/Mol)
 Warning -- explicit consideration of  19 degrees of freedom as
           vibrations may cause significant error
 Vibrational temperatures:     55.58    92.49   104.08   148.60   186.71
          (Kelvin)            214.10   220.87   241.60   253.22   261.73
                              317.10   344.49   384.99   413.05   439.88
                              485.15   580.11   713.78   756.82   926.83
                             1005.18  1083.08  1120.18  1264.03  1375.42
                             1444.36  1514.91  1552.12  1643.94  1662.98
                             1705.43  1765.78  1857.79  1936.29  2015.48
                             2098.00  2101.61  2127.28  2146.32  2158.16
                             2162.19  2244.14  2348.13  2411.29  4387.37
                             4425.18  4494.29  4540.57  4550.92  4568.81
                             5058.64  5182.11  5246.04

 Zero-point correction=                           0.146210 (Hartree/Particle)
 Thermal correction to Energy=                    0.160212
 Thermal correction to Enthalpy=                  0.161156
 Thermal correction to Gibbs Free Energy=         0.103205
 Sum of electronic and zero-point Energies=          -5989.150572
 Sum of electronic and thermal Energies=             -5989.136570
 Sum of electronic and thermal Enthalpies=           -5989.135626
 Sum of electronic and thermal Free Energies=        -5989.193577

                     E (Thermal)             CV                S
                      KCal/Mol        Cal/Mol-Kelvin    Cal/Mol-Kelvin
 Total                  100.535             46.410            121.968
 Electronic               0.000              0.000              0.000
 Translational            0.889              2.981             43.051
 Rotational               0.889              2.981             32.683
 Vibrational             98.757             40.448             46.235
 Vibration     1          0.594              1.981              5.328
 Vibration     2          0.597              1.971              4.321
 Vibration     3          0.598              1.967              4.089
 Vibration     4          0.605              1.947              3.391
 Vibration     5          0.612              1.924              2.949
 Vibration     6          0.618              1.904              2.687
 Vibration     7          0.619              1.899              2.628
 Vibration     8          0.625              1.882              2.459
 Vibration     9          0.628              1.872              2.370
 Vibration    10          0.630              1.864              2.309
 Vibration    11          0.647              1.810              1.956
 Vibration    12          0.657              1.780              1.807
 Vibration    13          0.673              1.733              1.612
 Vibration    14          0.684              1.698              1.491
 Vibration    15          0.696              1.663              1.385
 Vibration    16          0.718              1.601              1.225
 Vibration    17          0.769              1.463              0.951
 Vibration    18          0.852              1.259              0.668
 Vibration    19          0.881              1.192              0.596

 Optimization completed.
    -- Stationary point found.
 Normal termination of Gaussian 16 at Sun Feb 28 13:31:26 2021.
