 Gaussian 16, Revision A.03,
 Gaussian 16:  ES64L-G16RevA.03 25-Dec-2016

 ----------------------------------------------------------------------
 # wB97XD def2tzvp, opt=(ts, noeigen, calcfc, maxcycles=70, maxstep=8),
  freq=noraman, scrf=(iefpcm, solvent=water)
 ----------------------------------------------------------------------

 ------------------------
 1_iteration/TS-959-1.out
 ------------------------
 Symbolic Z-matrix:
 Charge =  0 Multiplicity = 1

 SCF Done:  E(RwB97XD) =  -4067.03480693     A.U. after   15 cycles
 SCF Done:  E(RwB97XD) =  -4067.03560512     A.U. after   12 cycles
 SCF Done:  E(RwB97XD) =  -4067.03575130     A.U. after   12 cycles
 SCF Done:  E(RwB97XD) =  -4067.03576463     A.U. after   10 cycles
 SCF Done:  E(RwB97XD) =  -4067.03575713     A.U. after   11 cycles
 SCF Done:  E(RwB97XD) =  -4067.03577628     A.U. after   10 cycles
 SCF Done:  E(RwB97XD) =  -4067.03577893     A.U. after    9 cycles
 SCF Done:  E(RwB97XD) =  -4067.03577899     A.U. after    8 cycles
 SCF Done:  E(RwB97XD) =  -4067.03578005     A.U. after    8 cycles
 SCF Done:  E(RwB97XD) =  -4067.03578013     A.U. after    7 cycles
 Optimization completed.
    -- Stationary point found.
 Normal termination of Gaussian 16 at Sun Feb 28 16:38:41 2021.

 ---------------------------------------------------------------------
 #N Geom=AllCheck Guess=TCheck SCRF=Check GenChk RwB97XD/def2TZVP Freq
 ---------------------------------------------------------------------

 Structure from the checkpoint file:  "/beegfs/scratch/user/q/tla25/Gau-37162.chk"
 ------------------------
 1_iteration/TS-959-1.out
 ------------------------
 Charge =  0 Multiplicity = 1

                         Standard orientation:
 ---------------------------------------------------------------------
 Center     Atomic      Atomic             Coordinates (Angstroms)
 Number     Number       Type             X           Y           Z
 ---------------------------------------------------------------------
      1          6           0        0.611849    0.870633   -0.078890
      2          6           0       -0.577373    0.037578    0.065308
      3          8           0       -0.489848   -1.138676    0.420550
      4          6           0        1.878099    0.313819   -0.046661
      5          6           0        3.368153   -1.142297    2.128781
      6          1           0        3.330669   -1.464111    3.170919
      7          1           0        3.495424   -2.015638    1.492909
      8          1           0        4.217142   -0.474319    1.993337
      9          7           0        2.144571   -0.446557    1.747747
     10          1           0        1.321604   -1.043258    1.773708
     11          1           0        1.972030    0.364348    2.330959
     12         17           0        3.253398    1.372828   -0.144291
     13         35           0        2.213018   -1.304218   -1.072988
     14         17           0        0.424282    2.606463    0.052130
     15          7           0       -1.771424    0.643347   -0.205525
     16          6           0       -3.072338    0.143997   -0.062832
     17          6           0       -3.371859   -1.181804    0.249493
     18          6           0       -4.697926   -1.576973    0.363629
     19          6           0       -5.735741   -0.680298    0.167090
     20          6           0       -5.435158    0.637982   -0.149810
     21          6           0       -4.119606    1.047802   -0.262402
     22          1           0       -1.714441    1.607222   -0.490520
     23          1           0       -2.573909   -1.889805    0.398792
     24          1           0       -4.915222   -2.609508    0.607896
     25          1           0       -6.765038   -1.001961    0.256969
     26          1           0       -6.229777    1.355957   -0.309120
     27          1           0       -3.896498    2.079994   -0.506727
 ---------------------------------------------------------------------

 SCF Done:  E(RwB97XD) =  -4067.03578013     A.U. after    1 cycles

 The electronic state is 1-A.
 Alpha  occ. eigenvalues -- -483.14009-101.72062-101.70469 -62.68847 -56.47989
 Alpha  occ. eigenvalues --  -56.47598 -56.47585 -19.22249 -14.48552 -14.47324
 Alpha  occ. eigenvalues --  -10.45228 -10.40406 -10.34182 -10.33099 -10.31841
 Alpha  occ. eigenvalues --  -10.29239 -10.29130 -10.29087 -10.28532 -10.28504
 Alpha  occ. eigenvalues --   -9.60632  -9.58987  -8.82950  -7.35320  -7.34396
 Alpha  occ. eigenvalues --   -7.34350  -7.33642  -7.32776  -7.32734  -6.65176
 Alpha  occ. eigenvalues --   -6.63936  -6.63894  -2.75547  -2.75200  -2.75167
 Alpha  occ. eigenvalues --   -2.74164  -2.74164  -1.15304  -1.05171  -1.04757
 Alpha  occ. eigenvalues --   -1.00834  -0.96607  -0.95208  -0.90005  -0.85760
 Alpha  occ. eigenvalues --   -0.85350  -0.82898  -0.78900  -0.75046  -0.71921
 Alpha  occ. eigenvalues --   -0.68602  -0.65475  -0.63394  -0.62996  -0.60024
 Alpha  occ. eigenvalues --   -0.58441  -0.56860  -0.56381  -0.55301  -0.54374
 Alpha  occ. eigenvalues --   -0.52865  -0.52460  -0.52275  -0.50800  -0.49583
 Alpha  occ. eigenvalues --   -0.48328  -0.48025  -0.47025  -0.45028  -0.43519
 Alpha  occ. eigenvalues --   -0.43212  -0.43122  -0.41378  -0.40461  -0.39868
 Alpha  occ. eigenvalues --   -0.37871  -0.37750  -0.34835  -0.33939  -0.30971
 Alpha  occ. eigenvalues --   -0.27950
 Alpha virt. eigenvalues --    0.01142   0.03363   0.05187   0.06725   0.07288
 Alpha virt. eigenvalues --    0.10854   0.12928   0.13495   0.14343   0.15184
 Alpha virt. eigenvalues --    0.16190   0.16803   0.17545   0.18024   0.18445

 Mulliken charges:
               1
     1  C   -0.263981
     2  C    0.469732
     3  O   -0.537219
     4  C    0.138766
     5  C   -0.269238
     6  H    0.155043
     7  H    0.150986
     8  H    0.148501
     9  N   -0.351853
    10  H    0.283711
    11  H    0.284842
    12  Cl  -0.025928
    13  Br  -0.061004
    14  Cl  -0.134610
    15  N   -0.273899
    16  C    0.299686
    17  C   -0.290335
    18  C   -0.107786
    19  C   -0.191734
    20  C   -0.098462
    21  C   -0.305402
    22  H    0.243264
    23  H    0.163234
    24  H    0.142924
    25  H    0.142114
    26  H    0.144969
    27  H    0.143680
 Sum of Mulliken charges =  -0.00000

 Dipole moment (field-independent basis, Debye):
    X=              2.3271    Y=              0.6940    Z=              4.2014  Tot=              4.8527
 Quadrupole moment (field-independent basis, Debye-Ang):
   XX=           -104.6915   YY=           -117.3582   ZZ=           -113.5134
   XY=             -7.5212   XZ=             13.0666   YZ=             -3.6650

  Exact polarizability: 354.930  -9.792 268.375  15.827 -13.654 188.050
 Approx polarizability: 251.640  -4.489 233.419   8.085 -11.062 165.527

 ******    1 imaginary frequencies (negative Signs) ******

                      1                      2                      3
                      A                      A                      A
 Frequencies --   -364.9301                21.9883                29.5824
 Red. masses --      6.9255                 3.9227                 7.6268
 Frc consts  --      0.5434                 0.0011                 0.0039
 IR Inten    --    951.4028                 0.2699                 2.2211

                      4                      5                      6
                      A                      A                      A
 Frequencies --     49.5205                73.6166                79.5728
 Red. masses --      4.7768                 4.4345                 6.5266
 Frc consts  --      0.0069                 0.0142                 0.0243
 IR Inten    --      6.5794                 2.4383                 1.0162

                      7                      8                      9
                      A                      A                      A
 Frequencies --     87.0451               118.0030               153.7552
 Red. masses --      2.7362                 5.1986                 3.7008
 Frc consts  --      0.0122                 0.0427                 0.0515
 IR Inten    --      4.4629                13.2507                 5.9953

                     10                     11                     12
                      A                      A                      A
 Frequencies --    158.6900               193.9100               208.5339
 Red. masses --      2.2964                 6.3604                 5.6804
 Frc consts  --      0.0341                 0.1409                 0.1455
 IR Inten    --      1.7812                 8.6291                21.2900

                     13                     14                     15
                      A                      A                      A
 Frequencies --    229.2756               231.1687               254.6626
 Red. masses --      5.9827                 4.4666                 5.8205
 Frc consts  --      0.1853                 0.1406                 0.2224
 IR Inten    --     25.1390                 1.3225                 7.5621

                     16                     17                     18
                      A                      A                      A
 Frequencies --    266.7991               289.0803               361.0407
 Red. masses --      5.5926                 7.8736                 6.3920
 Frc consts  --      0.2345                 0.3877                 0.4909
 IR Inten    --      8.2424                 5.9826                 6.2638

                     19                     20                     21
                      A                      A                      A
 Frequencies --    368.4869               421.1516               424.0206
 Red. masses --      8.0321                 4.9973                 4.0629
 Frc consts  --      0.6426                 0.5222                 0.4304
 IR Inten    --      4.8184                47.9470                28.6671

                     22                     23                     24
                      A                      A                      A
 Frequencies --    494.8158               529.6621               564.7936
 Red. masses --      8.9454                 2.8866                 7.9618
 Frc consts  --      1.2904                 0.4771                 1.4964
 IR Inten    --    104.2090                54.9749                57.1166

                     25                     26                     27
                      A                      A                      A
 Frequencies --    589.9404               635.6147               658.9882
 Red. masses --      1.1499                 6.4121                 1.5740
 Frc consts  --      0.2358                 1.5263                 0.4027
 IR Inten    --    102.9293                 2.9683                24.3638

                     28                     29                     30
                      A                      A                      A
 Frequencies --    713.7342               719.2531               767.8307
 Red. masses --      6.1190                 1.8913                 8.6189
 Frc consts  --      1.8366                 0.5765                 2.9939
 IR Inten    --     60.5032                54.7271                58.1224

                     31                     32                     33
                      A                      A                      A
 Frequencies --    785.7363               794.3426               863.3793
 Red. masses --      1.8453                 4.8137                 1.2570
 Frc consts  --      0.6712                 1.7895                 0.5521
 IR Inten    --    119.9522               207.9396                 0.1505

                     34                     35                     36
                      A                      A                      A
 Frequencies --    876.1928               907.8771               937.4122
 Red. masses --      5.6760                 6.5473                 1.4657
 Frc consts  --      2.5674                 3.1796                 0.7588
 IR Inten    --     11.6076                34.2609                13.1800

                     37                     38                     39
                      A                      A                      A
 Frequencies --   1004.0679              1021.1867              1021.5889
 Red. masses --      1.3497                 2.7555                 1.7027
 Frc consts  --      0.8017                 1.6930                 1.0470
 IR Inten    --      0.0335                 2.5284                 1.4067

                     40                     41                     42
                      A                      A                      A
 Frequencies --   1026.4172              1037.9828              1061.9769
 Red. masses --      1.1339                 1.1878                 2.2812
 Frc consts  --      0.7038                 0.7540                 1.5158
 IR Inten    --      5.7912               103.4071                 6.2873

                     43                     44                     45
                      A                      A                      A
 Frequencies --   1079.0584              1089.9665              1126.9970
 Red. masses --      4.0400                 4.0385                 1.7062
 Frc consts  --      2.7716                 2.8268                 1.2768
 IR Inten    --    253.4625                35.8860                10.6810

                     46                     47                     48
                      A                      A                      A
 Frequencies --   1183.2406              1208.7911              1211.0606
 Red. masses --      1.1243                 1.4022                 1.1454
 Frc consts  --      0.9274                 1.2071                 0.9898
 IR Inten    --      3.0453                27.7794                32.6969

                     49                     50                     51
                      A                      A                      A
 Frequencies --   1263.9338              1272.9301              1341.7436
 Red. masses --      2.7692                 3.6788                 1.3472
 Frc consts  --      2.6065                 3.5121                 1.4290
 IR Inten    --    604.3577                94.6200                24.5619

                     52                     53                     54
                      A                      A                      A
 Frequencies --   1345.3692              1363.5703              1411.6768
 Red. masses --      4.5256                 1.4917                 5.8242
 Frc consts  --      4.8263                 1.6342                 6.8385
 IR Inten    --    776.3318                54.0180               803.5510

                     55                     56                     57
                      A                      A                      A
 Frequencies --   1459.1695              1484.3321              1490.1010
 Red. masses --      1.1996                 2.2265                 1.0420
 Frc consts  --      1.5049                 2.8902                 1.3632
 IR Inten    --     14.9683               275.5231                20.7496

                     58                     59                     60
                      A                      A                      A
 Frequencies --   1500.2408              1548.0288              1579.3372
 Red. masses --      1.0302                 2.4199                 2.0956
 Frc consts  --      1.3662                 3.4166                 3.0797
 IR Inten    --     18.8605               192.4389               917.2710

                     61                     62                     63
                      A                      A                      A
 Frequencies --   1647.9256              1662.4995              1670.7614
 Red. masses --      1.0944                 5.6123                 4.7159
 Frc consts  --      1.7510                 9.1394                 7.7560
 IR Inten    --     52.5602               148.7197                75.8012

                     64                     65                     66
                      A                      A                      A
 Frequencies --   1687.8874              3065.6893              3143.4327
 Red. masses --      7.2497                 1.0362                 1.1013
 Frc consts  --     12.1691                 5.7376                 6.4117
 IR Inten    --    285.5952                49.5878                12.2817

                     67                     68                     69
                      A                      A                      A
 Frequencies --   3173.2609              3190.9986              3198.6929
 Red. masses --      1.1054                 1.0876                 1.0886
 Frc consts  --      6.5581                 6.5248                 6.5627
 IR Inten    --     10.5816                11.0172                 2.5189

                     70                     71                     72
                      A                      A                      A
 Frequencies --   3208.7508              3223.0722              3268.3678
 Red. masses --      1.0933                 1.0981                 1.0931
 Frc consts  --      6.6322                 6.7207                 6.8796
 IR Inten    --     27.9679                21.3527                 6.5051

                     73                     74                     75
                      A                      A                      A
 Frequencies --   3488.6272              3586.7177              3636.1109
 Red. masses --      1.0542                 1.0946                 1.0765
 Frc consts  --      7.5596                 8.2966                 8.3858
 IR Inten    --     51.5825                71.9425                88.2050

 - Thermochemistry -
 -------------------
 Temperature   298.150 Kelvin.  Pressure   1.00000 Atm.
 Atom     1 has atomic number  6 and mass  12.00000

 Molecular mass:   323.94318 amu.
 Principal axes and moments of inertia in atomic units:
                           1         2         3
     Eigenvalues --  2898.18108********************
           X            0.99979   0.00669   0.01944
           Y           -0.00531   0.99750  -0.07053
           Z           -0.01987   0.07041   0.99732
 This molecule is an asymmetric top.
 Rotational symmetry number  1.
 Warning -- assumption of classical behavior for rotation
           may cause significant error
 Rotational temperatures (Kelvin)      0.02989     0.00829     0.00735
 Rotational constants (GHZ):           0.62272     0.17268     0.15307
    1 imaginary frequencies ignored.
 Zero-point vibrational energy     525430.0 (Joules/Mol)
                                  125.58079 (Kcal/Mol)
 Warning -- explicit consideration of  24 degrees of freedom as
           vibrations may cause significant error
 Vibrational temperatures:     31.64    42.56    71.25   105.92   114.49
          (Kelvin)            125.24   169.78   221.22   228.32   278.99
                              300.03   329.88   332.60   366.40   383.86
                              415.92   519.46   530.17   605.94   610.07
                              711.93   762.07   812.61   848.79   914.51
                              948.14  1026.90  1034.84  1104.74  1130.50
                             1142.88  1242.21  1260.65  1306.23  1348.73
                             1444.63  1469.26  1469.84  1476.79  1493.43
                             1527.95  1552.52  1568.22  1621.50  1702.42
                             1739.18  1742.45  1818.52  1831.46  1930.47
                             1935.69  1961.87  2031.09  2099.42  2135.62
                             2143.92  2158.51  2227.27  2272.31  2371.00
                             2391.97  2403.85  2428.49  4410.84  4522.70
                             4565.61  4591.14  4602.21  4616.68  4637.28
                             4702.45  5019.36  5160.49  5231.55

 Zero-point correction=                           0.200126 (Hartree/Particle)
 Thermal correction to Energy=                    0.216800
 Thermal correction to Enthalpy=                  0.217744
 Thermal correction to Gibbs Free Energy=         0.152547
 Sum of electronic and zero-point Energies=          -4066.835654
 Sum of electronic and thermal Energies=             -4066.818980
 Sum of electronic and thermal Enthalpies=           -4066.818036
 Sum of electronic and thermal Free Energies=        -4066.883233

                     E (Thermal)             CV                S
                      KCal/Mol        Cal/Mol-Kelvin    Cal/Mol-Kelvin
 Total                  136.044             58.987            137.219
 Electronic               0.000              0.000              0.000
 Translational            0.889              2.981             43.222
 Rotational               0.889              2.981             34.234
 Vibrational            134.266             53.026             59.763
 Vibration     1          0.593              1.985              6.446
 Vibration     2          0.593              1.984              5.857
 Vibration     3          0.595              1.978              4.836
 Vibration     4          0.599              1.966              4.054
 Vibration     5          0.600              1.963              3.901
 Vibration     6          0.601              1.958              3.725
 Vibration     7          0.608              1.934              3.133
 Vibration     8          0.619              1.898              2.625
 Vibration     9          0.621              1.893              2.565
 Vibration    10          0.635              1.848              2.190
 Vibration    11          0.642              1.828              2.056
 Vibration    12          0.652              1.796              1.885
 Vibration    13          0.653              1.793              1.870
 Vibration    14          0.665              1.755              1.698
 Vibration    15          0.672              1.734              1.617
 Vibration    16          0.686              1.694              1.479
 Vibration    17          0.735              1.553              1.118
 Vibration    18          0.741              1.537              1.086
 Vibration    19          0.784              1.424              0.888
 Vibration    20          0.786              1.418              0.878
 Vibration    21          0.850              1.262              0.671
 Vibration    22          0.885              1.184              0.588
 Vibration    23          0.921              1.107              0.514
 Vibration    24          0.947              1.053              0.467

 Optimization completed.
    -- Stationary point found.
 Normal termination of Gaussian 16 at Sun Feb 28 17:32:22 2021.
