 Gaussian 16, Revision A.03,
 Gaussian 16:  ES64L-G16RevA.03 25-Dec-2016

 ----------------------------------------------------------------------
 # wB97XD def2tzvp, opt=(ts, noeigen, calcfc, maxcycles=70, maxstep=8),
  freq=noraman, scrf=(iefpcm, solvent=water)
 ----------------------------------------------------------------------

 ------------------------
 1_iteration/TS-953-1.out
 ------------------------
 Symbolic Z-matrix:
 Charge =  0 Multiplicity = 1

 SCF Done:  E(RwB97XD) =  -3780.60657332     A.U. after   15 cycles
 SCF Done:  E(RwB97XD) =  -3780.60657331     A.U. after    7 cycles
 Optimization completed.
    -- Stationary point found.
 Normal termination of Gaussian 16 at Sun Feb 28 12:46:40 2021.

 ---------------------------------------------------------------------
 #N Geom=AllCheck Guess=TCheck SCRF=Check GenChk RwB97XD/def2TZVP Freq
 ---------------------------------------------------------------------

 Structure from the checkpoint file:  "/beegfs/scratch/user/q/tla25/Gau-14507.chk"
 ------------------------
 1_iteration/TS-953-1.out
 ------------------------
 Charge =  0 Multiplicity = 1

                         Standard orientation:
 ---------------------------------------------------------------------
 Center     Atomic      Atomic             Coordinates (Angstroms)
 Number     Number       Type             X           Y           Z
 ---------------------------------------------------------------------
      1          6           0       -1.042123   -0.225338   -0.313732
      2          6           0       -1.267574   -1.636513   -0.390053
      3          8           0       -2.362401   -2.175583   -0.449717
      4          6           0        0.190260    0.382821   -0.151338
      5          6           0        0.088953   -0.370392    2.605888
      6          1           0        0.064096   -0.122253    3.666847
      7          1           0       -0.899289   -0.717523    2.302808
      8          1           0        0.812231   -1.167129    2.441296
      9          7           0        0.448354    0.782005    1.796096
     10          1           0       -0.163333    1.571119    1.971607
     11          1           0        1.405570    1.081384    1.943131
     12         17           0        0.413385    2.030364   -0.701985
     13         35           0        1.768264   -0.662119   -0.445342
     14         17           0       -2.461256    0.781457   -0.227976
     15          1           0       -0.351066   -2.245231   -0.408895
 ---------------------------------------------------------------------

 SCF Done:  E(RwB97XD) =  -3780.60657331     A.U. after    1 cycles

 The electronic state is 1-A.
 Alpha  occ. eigenvalues -- -483.15579-101.72164-101.70161 -62.70414 -56.49561
 Alpha  occ. eigenvalues --  -56.49161 -56.49152 -19.23003 -14.49179 -10.45929
 Alpha  occ. eigenvalues --  -10.36822 -10.33682 -10.32169  -9.60734  -9.58678
 Alpha  occ. eigenvalues --   -8.84523  -7.35423  -7.34493  -7.34452  -7.33333
 Alpha  occ. eigenvalues --   -7.32457  -7.32436  -6.66768  -6.65490  -6.65464
 Alpha  occ. eigenvalues --   -2.77140  -2.76771  -2.76752  -2.75719  -2.75719
 Alpha  occ. eigenvalues --   -1.13621  -1.05415  -1.01233  -0.96063  -0.91612
 Alpha  occ. eigenvalues --   -0.83928  -0.79468  -0.73711  -0.64155  -0.63266
 Alpha  occ. eigenvalues --   -0.59738  -0.58516  -0.56391  -0.55668  -0.51598
 Alpha  occ. eigenvalues --   -0.49912  -0.49363  -0.48645  -0.47578  -0.43654
 Alpha  occ. eigenvalues --   -0.42267  -0.41162  -0.40837  -0.38547  -0.38283
 Alpha  occ. eigenvalues --   -0.34159  -0.29981
 Alpha virt. eigenvalues --    0.00634   0.03071   0.06346   0.10561   0.12264
 Alpha virt. eigenvalues --    0.13881   0.15054   0.15471   0.17925   0.18365
 Alpha virt. eigenvalues --    0.19823   0.21942   0.23137   0.23633   0.25025

 Mulliken charges:
               1
     1  C   -0.114142
     2  C    0.086688
     3  O   -0.448569
     4  C    0.120349
     5  C   -0.309441
     6  H    0.167585
     7  H    0.165523
     8  H    0.161638
     9  N   -0.367498
    10  H    0.290406
    11  H    0.299400
    12  Cl  -0.025691
    13  Br  -0.011240
    14  Cl  -0.125090
    15  H    0.110083
 Sum of Mulliken charges =  -0.00000

 Dipole moment (field-independent basis, Debye):
    X=              6.9878    Y=              3.7079    Z=              6.2169  Tot=             10.0612
 Quadrupole moment (field-independent basis, Debye-Ang):
   XX=            -92.4946   YY=            -83.0815   ZZ=            -67.8434
   XY=             -9.6141   XZ=             -0.6329   YZ=              2.3336

  Exact polarizability: 176.750  12.217 160.347  11.476   8.619 130.694
 Approx polarizability: 145.581   7.507 137.894   7.098   6.034 111.150

 ******    1 imaginary frequencies (negative Signs) ******

                      1                      2                      3
                      A                      A                      A
 Frequencies --   -359.3769                59.6274                70.2557
 Red. masses --      5.8935                 8.9046                 2.3440
 Frc consts  --      0.4485                 0.0187                 0.0068
 IR Inten    --    809.0062                 1.2208                 0.5895

                      4                      5                      6
                      A                      A                      A
 Frequencies --    108.0366               131.0315               165.7622
 Red. masses --      2.7504                 1.8799                 7.8498
 Frc consts  --      0.0189                 0.0190                 0.1271
 IR Inten    --      8.2510                 1.9200                 6.4947

                      7                      8                      9
                      A                      A                      A
 Frequencies --    189.4682               211.1787               220.2596
 Red. masses --      2.6049                 5.7951                20.9695
 Frc consts  --      0.0551                 0.1523                 0.5994
 IR Inten    --      0.7378                15.8227                 3.2122

                     10                     11                     12
                      A                      A                      A
 Frequencies --    250.3974               282.6126               299.1045
 Red. masses --      4.3092                15.6974                 5.6910
 Frc consts  --      0.1592                 0.7387                 0.3000
 IR Inten    --      5.3168                 5.2775                24.1950

                     13                     14                     15
                      A                      A                      A
 Frequencies --    336.6185               415.3756               524.0075
 Red. masses --      3.2416                13.1002                 4.8889
 Frc consts  --      0.2164                 1.3317                 0.7909
 IR Inten    --      7.2236                 6.3320               109.4025

                     16                     17                     18
                      A                      A                      A
 Frequencies --    629.0799               668.4437               791.5236
 Red. masses --      1.5128                 7.0542                 5.6001
 Frc consts  --      0.3527                 1.8571                 2.0672
 IR Inten    --     10.3579                95.5578               216.0809

                     19                     20                     21
                      A                      A                      A
 Frequencies --    842.9280               992.9503              1015.0652
 Red. masses --      7.9576                 1.0765                 1.3730
 Frc consts  --      3.3313                 0.6253                 0.8335
 IR Inten    --    156.1166                35.3034                35.5508

                     22                     23                     24
                      A                      A                      A
 Frequencies --   1018.9733              1086.6132              1205.7991
 Red. masses --      1.3209                 4.8574                 1.4238
 Frc consts  --      0.8081                 3.3791                 1.2197
 IR Inten    --     61.7897                22.5868                 8.6782

                     25                     26                     27
                      A                      A                      A
 Frequencies --   1224.9070              1340.0529              1381.4102
 Red. masses --      5.3150                 1.3348                 2.5382
 Frc consts  --      4.6985                 1.4122                 2.8538
 IR Inten    --    316.8212                 1.7642               745.9348

                     28                     29                     30
                      A                      A                      A
 Frequencies --   1452.3504              1471.4827              1491.9899
 Red. masses --      1.2881                 1.7697                 1.0456
 Frc consts  --      1.6008                 2.2576                 1.3714
 IR Inten    --    110.4531               288.7831                18.4014

                     31                     32                     33
                      A                      A                      A
 Frequencies --   1500.1306              1644.2089              1699.2792
 Red. masses --      1.0327                 1.0908                 9.4227
 Frc consts  --      1.3693                 1.7374                16.0307
 IR Inten    --     19.1100                64.3121               892.7445

                     34                     35                     36
                      A                      A                      A
 Frequencies --   3013.6714              3068.4384              3144.9266
 Red. masses --      1.0838                 1.0330                 1.1045
 Frc consts  --      5.7993                 5.7305                 6.4364
 IR Inten    --     58.8062                20.7817                 7.7328

                     37                     38                     39
                      A                      A                      A
 Frequencies --   3164.6692              3523.6635              3609.4873
 Red. masses --      1.1054                 1.0503                 1.0971
 Frc consts  --      6.5226                 7.6830                 8.4214
 IR Inten    --      9.7986                83.4771                60.4350

 - Thermochemistry -
 -------------------
 Temperature   298.150 Kelvin.  Pressure   1.00000 Atm.
 Atom     1 has atomic number  6 and mass  12.00000

 Molecular mass:   232.90098 amu.
 Principal axes and moments of inertia in atomic units:
                           1         2         3
     Eigenvalues --  1891.975832830.191493298.79198
           X            0.99851   0.05002   0.02164
           Y           -0.05011   0.99874   0.00359
           Z           -0.02144  -0.00467   0.99976
 This molecule is an asymmetric top.
 Rotational symmetry number  1.
 Warning -- assumption of classical behavior for rotation
           may cause significant error
 Rotational temperatures (Kelvin)      0.04578     0.03060     0.02626
 Rotational constants (GHZ):           0.95389     0.63767     0.54709
    1 imaginary frequencies ignored.
 Zero-point vibrational energy     264648.5 (Joules/Mol)
                                   63.25252 (Kcal/Mol)
 Warning -- explicit consideration of  14 degrees of freedom as
           vibrations may cause significant error
 Vibrational temperatures:     85.79   101.08   155.44   188.53   238.49
          (Kelvin)            272.60   303.84   316.90   360.27   406.62
                              430.34   484.32   597.63   753.93   905.11
                              961.74  1138.83  1212.79  1428.63  1460.45
                             1466.08  1563.39  1734.88  1762.37  1928.04
                             1987.54  2089.61  2117.14  2146.64  2158.35
                             2365.65  2444.88  4336.00  4414.80  4524.85
                             4553.25  5069.77  5193.25

 Zero-point correction=                           0.100799 (Hartree/Particle)
 Thermal correction to Energy=                    0.111757
 Thermal correction to Enthalpy=                  0.112702
 Thermal correction to Gibbs Free Energy=         0.062289
 Sum of electronic and zero-point Energies=          -3780.505774
 Sum of electronic and thermal Energies=             -3780.494816
 Sum of electronic and thermal Enthalpies=           -3780.493872
 Sum of electronic and thermal Free Energies=        -3780.544285

                     E (Thermal)             CV                S
                      KCal/Mol        Cal/Mol-Kelvin    Cal/Mol-Kelvin
 Total                   70.129             36.062            106.103
 Electronic               0.000              0.000              0.000
 Translational            0.889              2.981             42.238
 Rotational               0.889              2.981             31.247
 Vibrational             68.351             30.101             32.618
 Vibration     1          0.597              1.974              4.469
 Vibration     2          0.598              1.968              4.146
 Vibration     3          0.606              1.943              3.304
 Vibration     4          0.612              1.922              2.931
 Vibration     5          0.624              1.885              2.483
 Vibration     6          0.633              1.854              2.233
 Vibration     7          0.643              1.824              2.033
 Vibration     8          0.647              1.810              1.957
 Vibration     9          0.663              1.762              1.728
 Vibration    10          0.682              1.706              1.518
 Vibration    11          0.692              1.675              1.422
 Vibration    12          0.717              1.602              1.228
 Vibration    13          0.779              1.437              0.908
 Vibration    14          0.879              1.197              0.601

 Optimization completed.
    -- Stationary point found.
 Normal termination of Gaussian 16 at Sun Feb 28 12:56:39 2021.
