 Gaussian 16, Revision A.03,
 Gaussian 16:  ES64L-G16RevA.03 25-Dec-2016

 ----------------------------------------------------------------------
 # wB97XD def2tzvp, opt=(ts, noeigen, calcfc, maxcycles=70, maxstep=8),
  freq=noraman, scrf=(iefpcm, solvent=water)
 ----------------------------------------------------------------------

 ------------------------
 1_iteration/TS-973-1.out
 ------------------------
 Symbolic Z-matrix:
 Charge =  0 Multiplicity = 1

 SCF Done:  E(RwB97XD) =  -1301.68964482     A.U. after   15 cycles
 SCF Done:  E(RwB97XD) =  -1301.68964486     A.U. after    7 cycles
 Optimization completed.
    -- Stationary point found.
 Normal termination of Gaussian 16 at Sun Feb 28 12:50:30 2021.

 ---------------------------------------------------------------------
 #N Geom=AllCheck Guess=TCheck SCRF=Check GenChk RwB97XD/def2TZVP Freq
 ---------------------------------------------------------------------

 Structure from the checkpoint file:  "/beegfs/scratch/user/q/tla25/Gau-107702.chk"
 ------------------------
 1_iteration/TS-973-1.out
 ------------------------
 Charge =  0 Multiplicity = 1

                         Standard orientation:
 ---------------------------------------------------------------------
 Center     Atomic      Atomic             Coordinates (Angstroms)
 Number     Number       Type             X           Y           Z
 ---------------------------------------------------------------------
      1          6           0        0.178448   -0.450867   -0.960134
      2          6           0        1.598601   -0.462054   -0.673434
      3          8           0        2.360651   -1.220373   -1.287413
      4          6           0       -0.836284    0.171348   -0.263876
      5          6           0       -1.179656   -1.979468    1.403843
      6          1           0       -1.024155   -2.402462    2.394409
      7          1           0       -2.162284   -2.261585    1.034901
      8          1           0       -0.413593   -2.353702    0.723339
      9          7           0       -1.074920   -0.524751    1.439944
     10          1           0       -1.875411   -0.085540    1.882902
     11          1           0       -0.239030   -0.233207    1.936837
     12         17           0       -2.449937   -0.073306   -0.929960
     13         17           0       -0.670101    1.892876    0.272677
     14          1           0       -0.128530   -1.181535   -1.692926
     15          7           0        2.092813    0.335094    0.320595
     16          6           0        3.516796    0.423499    0.555707
     17          1           0        1.537934    1.120633    0.611922
     18          1           0        4.054699    0.829439   -0.305662
     19          1           0        3.685794    1.071944    1.413287
     20          1           0        3.927337   -0.560831    0.777697
 ---------------------------------------------------------------------

 SCF Done:  E(RwB97XD) =  -1301.68964486     A.U. after    1 cycles

 The electronic state is 1-A.
 Alpha  occ. eigenvalues -- -101.71341-101.71077 -19.19753 -14.50864 -14.44441
 Alpha  occ. eigenvalues --  -10.45417 -10.37690 -10.32311 -10.30500 -10.25970
 Alpha  occ. eigenvalues --   -9.59926  -9.59684  -7.34600  -7.34312  -7.33684
 Alpha  occ. eigenvalues --   -7.33662  -7.33469  -7.33434  -1.12482  -1.06905
 Alpha  occ. eigenvalues --   -1.01242  -1.00162  -0.93579  -0.85833  -0.80028
 Alpha  occ. eigenvalues --   -0.79003  -0.69912  -0.66400  -0.65014  -0.60528
 Alpha  occ. eigenvalues --   -0.59302  -0.57008  -0.55997  -0.53937  -0.53234
 Alpha  occ. eigenvalues --   -0.50540  -0.48958  -0.48782  -0.47520  -0.46525
 Alpha  occ. eigenvalues --   -0.45963  -0.42931  -0.41839  -0.40041  -0.39877
 Alpha  occ. eigenvalues --   -0.34209  -0.33246  -0.28504
 Alpha virt. eigenvalues --    0.04633   0.06197   0.08502   0.10214   0.13397
 Alpha virt. eigenvalues --    0.14206   0.15629   0.16510   0.17232   0.17952
 Alpha virt. eigenvalues --    0.19233   0.20170   0.20516   0.21545   0.22379

 Mulliken charges:
               1
     1  C   -0.501972
     2  C    0.360596
     3  O   -0.554942
     4  C    0.178905
     5  C   -0.290422
     6  H    0.167133
     7  H    0.162091
     8  H    0.159782
     9  N   -0.286770
    10  H    0.301705
    11  H    0.286999
    12  Cl  -0.071978
    13  Cl  -0.104867
    14  H    0.149274
    15  N   -0.323774
    16  C   -0.256872
    17  H    0.233637
    18  H    0.122764
    19  H    0.138658
    20  H    0.130053
 Sum of Mulliken charges =  -0.00000

 Dipole moment (field-independent basis, Debye):
    X=             -4.7700    Y=              0.9662    Z=              8.8220  Tot=             10.0754
 Quadrupole moment (field-independent basis, Debye-Ang):
   XX=            -77.6673   YY=            -74.6397   ZZ=            -71.0782
   XY=             12.9871   XZ=              4.0619   YZ=             -5.7277

  Exact polarizability: 177.750  -2.585 140.225  -9.119   8.943 137.821
 Approx polarizability: 136.905  -3.679 120.460  -6.273  10.188 119.404

 ******    1 imaginary frequencies (negative Signs) ******

                      1                      2                      3
                      A                      A                      A
 Frequencies --   -377.8638                49.7248                71.9482
 Red. masses --      5.4063                 3.9226                 3.6125
 Frc consts  --      0.4548                 0.0057                 0.0110
 IR Inten    --    606.9302                 5.3947                 6.0281

                      4                      5                      6
                      A                      A                      A
 Frequencies --     86.6758               130.3388               138.7741
 Red. masses --      1.8499                 2.3791                 1.5515
 Frc consts  --      0.0082                 0.0238                 0.0176
 IR Inten    --     12.1395                 9.1907                 4.2091

                      7                      8                      9
                      A                      A                      A
 Frequencies --    158.6743               180.5374               194.9759
 Red. masses --      2.0235                 3.6008                 2.0121
 Frc consts  --      0.0300                 0.0691                 0.0451
 IR Inten    --      7.6231                 8.5093                11.8187

                     10                     11                     12
                      A                      A                      A
 Frequencies --    244.4931               261.1672               293.0983
 Red. masses --      6.2941                 5.8011                 5.4502
 Frc consts  --      0.2217                 0.2331                 0.2759
 IR Inten    --      3.4740                13.3501                 6.4629

                     13                     14                     15
                      A                      A                      A
 Frequencies --    329.9422               339.4244               399.2065
 Red. masses --      4.0816                 4.6780                13.3348
 Frc consts  --      0.2618                 0.3175                 1.2521
 IR Inten    --     31.5732                35.7676                19.5489

                     16                     17                     18
                      A                      A                      A
 Frequencies --    470.5522               523.1860               579.5826
 Red. masses --      1.3483                 3.0581                 2.1133
 Frc consts  --      0.1759                 0.4932                 0.4183
 IR Inten    --    100.7203               126.0327               146.3193

                     19                     20                     21
                      A                      A                      A
 Frequencies --    668.2570               683.6071               731.7596
 Red. masses --      1.7798                 3.5051                 2.2855
 Frc consts  --      0.4683                 0.9651                 0.7211
 IR Inten    --     46.8552                46.3326                77.9307

                     22                     23                     24
                      A                      A                      A
 Frequencies --    794.4567               872.7141               911.8999
 Red. masses --      6.3679                 3.6912                 2.9090
 Frc consts  --      2.3680                 1.6564                 1.4252
 IR Inten    --     96.2075               138.0742                26.2798

                     25                     26                     27
                      A                      A                      A
 Frequencies --   1026.5284              1067.5386              1085.0192
 Red. masses --      1.1163                 1.4329                 2.7026
 Frc consts  --      0.6931                 0.9621                 1.8746
 IR Inten    --     21.7275                18.2521               103.8685

                     28                     29                     30
                      A                      A                      A
 Frequencies --   1142.3084              1155.8943              1186.9020
 Red. masses --      2.3630                 1.5494                 1.8695
 Frc consts  --      1.8167                 1.2197                 1.5517
 IR Inten    --     29.9096                12.0920                36.3174

                     31                     32                     33
                      A                      A                      A
 Frequencies --   1243.9936              1252.4394              1317.0580
 Red. masses --      1.3725                 1.4007                 2.5734
 Frc consts  --      1.2514                 1.2946                 2.6300
 IR Inten    --    133.0435               344.8537               395.7354

                     34                     35                     36
                      A                      A                      A
 Frequencies --   1344.2992              1443.4906              1457.5900
 Red. masses --      1.3009                 2.0023                 1.1982
 Frc consts  --      1.3851                 2.4581                 1.4998
 IR Inten    --      0.6356               416.9882                29.1882

                     37                     38                     39
                      A                      A                      A
 Frequencies --   1467.9806              1478.2708              1493.9514
 Red. masses --      1.6216                 1.0709                 1.0471
 Frc consts  --      2.0589                 1.3788                 1.3770
 IR Inten    --    252.9881                27.3081                17.2787

                     40                     41                     42
                      A                      A                      A
 Frequencies --   1499.4568              1504.9137              1559.9901
 Red. masses --      1.0381                 1.0865                 1.8071
 Frc consts  --      1.3751                 1.4497                 2.5911
 IR Inten    --      5.8748                25.1516               448.0339

                     43                     44                     45
                      A                      A                      A
 Frequencies --   1632.9832              1655.7043              3043.8395
 Red. masses --      1.1163                 5.6135                 1.0424
 Frc consts  --      1.7538                 9.0667                 5.6902
 IR Inten    --    150.2371               850.7520                87.8006

                     46                     47                     48
                      A                      A                      A
 Frequencies --   3073.4992              3116.3256              3155.3485
 Red. masses --      1.0344                 1.0945                 1.1031
 Frc consts  --      5.7569                 6.2624                 6.4710
 IR Inten    --     25.8179                40.4342                 2.8580

                     49                     50                     51
                      A                      A                      A
 Frequencies --   3157.5126              3182.7182              3235.8091
 Red. masses --      1.1038                 1.1063                 1.0884
 Frc consts  --      6.4841                 6.6024                 6.7143
 IR Inten    --     23.3583                 7.5392                 1.0025

                     52                     53                     54
                      A                      A                      A
 Frequencies --   3508.0897              3592.1492              3652.5341
 Red. masses --      1.0509                 1.0973                 1.0772
 Frc consts  --      7.6197                 8.3420                 8.4670
 IR Inten    --     55.6907                81.5520                90.9670

 - Thermochemistry -
 -------------------
 Temperature   298.150 Kelvin.  Pressure   1.00000 Atm.
 Atom     1 has atomic number  6 and mass  12.00000

 Molecular mass:   184.01702 amu.
 Principal axes and moments of inertia in atomic units:
                           1         2         3
     Eigenvalues --  1373.224382887.263103161.00666
           X            0.99928   0.03701  -0.00790
           Y           -0.03763   0.99396  -0.10306
           Z            0.00404   0.10329   0.99464
 This molecule is an asymmetric top.
 Rotational symmetry number  1.
 Warning -- assumption of classical behavior for rotation
           may cause significant error
 Rotational temperatures (Kelvin)      0.06307     0.03000     0.02740
 Rotational constants (GHZ):           1.31424     0.62507     0.57094
    1 imaginary frequencies ignored.
 Zero-point vibrational energy     411809.3 (Joules/Mol)
                                   98.42478 (Kcal/Mol)
 Warning -- explicit consideration of  17 degrees of freedom as
           vibrations may cause significant error
 Vibrational temperatures:     71.54   103.52   124.71   187.53   199.66
          (Kelvin)            228.30   259.75   280.53   351.77   375.76
                              421.70   474.71   488.36   574.37   677.02
                              752.75   833.89   961.47   983.56  1052.84
                             1143.05  1255.64  1312.02  1476.95  1535.95
                             1561.10  1643.53  1663.07  1707.69  1789.83
                             1801.98  1894.95  1934.15  2076.86  2097.15
                             2112.10  2126.90  2149.46  2157.38  2165.24
                             2244.48  2349.50  2382.19  4379.41  4422.08
                             4483.70  4539.84  4542.96  4579.22  4655.61
                             5047.36  5168.30  5255.18

 Zero-point correction=                           0.156850 (Hartree/Particle)
 Thermal correction to Energy=                    0.169064
 Thermal correction to Enthalpy=                  0.170008
 Thermal correction to Gibbs Free Energy=         0.117688
 Sum of electronic and zero-point Energies=          -1301.532795
 Sum of electronic and thermal Energies=             -1301.520581
 Sum of electronic and thermal Enthalpies=           -1301.519636
 Sum of electronic and thermal Free Energies=        -1301.571957

                     E (Thermal)             CV                S
                      KCal/Mol        Cal/Mol-Kelvin    Cal/Mol-Kelvin
 Total                  106.089             41.972            110.118
 Electronic               0.000              0.000              0.000
 Translational            0.889              2.981             41.536
 Rotational               0.889              2.981             30.906
 Vibrational            104.312             36.010             37.676
 Vibration     1          0.595              1.978              4.828
 Vibration     2          0.598              1.967              4.099
 Vibration     3          0.601              1.958              3.734
 Vibration     4          0.612              1.923              2.941
 Vibration     5          0.614              1.915              2.821
 Vibration     6          0.621              1.893              2.566
 Vibration     7          0.629              1.866              2.323
 Vibration     8          0.636              1.847              2.180
 Vibration     9          0.660              1.772              1.770
 Vibration    10          0.669              1.744              1.654
 Vibration    11          0.688              1.687              1.456
 Vibration    12          0.713              1.616              1.260
 Vibration    13          0.719              1.597              1.215
 Vibration    14          0.765              1.472              0.966
 Vibration    15          0.828              1.315              0.736
 Vibration    16          0.878              1.199              0.603
 Vibration    17          0.936              1.075              0.486

 Optimization completed.
    -- Stationary point found.
 Normal termination of Gaussian 16 at Sun Feb 28 13:03:23 2021.
