 Gaussian 16, Revision A.03,
 Gaussian 16:  ES64L-G16RevA.03 25-Dec-2016

 ----------------------------------------------------------------------
 # wB97XD def2tzvp, opt=(ts, noeigen, calcfc, maxcycles=70, maxstep=8),
  freq=noraman, scrf=(iefpcm, solvent=water)
 ----------------------------------------------------------------------

 ------------------------
 1_iteration/TS-935-1.out
 ------------------------
 Symbolic Z-matrix:
 Charge =  0 Multiplicity = 1

 SCF Done:  E(RwB97XD) =  -3607.43096389     A.U. after   15 cycles
 SCF Done:  E(RwB97XD) =  -3607.43108944     A.U. after   12 cycles
 SCF Done:  E(RwB97XD) =  -3607.43106218     A.U. after   12 cycles
 SCF Done:  E(RwB97XD) =  -3607.43110859     A.U. after   12 cycles
 SCF Done:  E(RwB97XD) =  -3607.43094849     A.U. after   12 cycles
 SCF Done:  E(RwB97XD) =  -3607.43109623     A.U. after   12 cycles
 SCF Done:  E(RwB97XD) =  -3607.43107362     A.U. after   12 cycles
 SCF Done:  E(RwB97XD) =  -3607.43110673     A.U. after   12 cycles
 SCF Done:  E(RwB97XD) =  -3607.43096304     A.U. after   14 cycles
 SCF Done:  E(RwB97XD) =  -3607.43108938     A.U. after   12 cycles
 SCF Done:  E(RwB97XD) =  -3607.43108204     A.U. after   12 cycles
 SCF Done:  E(RwB97XD) =  -3607.43111449     A.U. after   12 cycles
 SCF Done:  E(RwB97XD) =  -3607.43111426     A.U. after   10 cycles
 SCF Done:  E(RwB97XD) =  -3607.43111469     A.U. after    9 cycles
 SCF Done:  E(RwB97XD) =  -3607.43111469     A.U. after    8 cycles
 SCF Done:  E(RwB97XD) =  -3607.43111454     A.U. after    7 cycles
 SCF Done:  E(RwB97XD) =  -3607.43111470     A.U. after    7 cycles
 SCF Done:  E(RwB97XD) =  -3607.43111470     A.U. after    6 cycles
 Optimization completed.
    -- Stationary point found.
 Normal termination of Gaussian 16 at Sun Feb 28 20:28:59 2021.

 ---------------------------------------------------------------------
 #N Geom=AllCheck Guess=TCheck SCRF=Check GenChk RwB97XD/def2TZVP Freq
 ---------------------------------------------------------------------

 Structure from the checkpoint file:  "/beegfs/scratch/user/q/tla25/Gau-9134.chk"
 ------------------------
 1_iteration/TS-935-1.out
 ------------------------
 Charge =  0 Multiplicity = 1

                         Standard orientation:
 ---------------------------------------------------------------------
 Center     Atomic      Atomic             Coordinates (Angstroms)
 Number     Number       Type             X           Y           Z
 ---------------------------------------------------------------------
      1          6           0       -1.103519   -1.140207   -0.826164
      2          6           0        0.343552   -1.225272   -0.806231
      3          8           0        0.915907   -2.191912   -1.310817
      4          6           0       -1.962182   -0.260373   -0.209538
      5          6           0       -2.070024   -1.843329    2.062106
      6          1           0       -1.809530   -1.985662    3.109482
      7          1           0       -3.087963   -2.183765    1.889378
      8          1           0       -1.385687   -2.418709    1.437141
      9          7           0       -1.958709   -0.440226    1.683247
     10          1           0       -1.071517   -0.049305    1.981772
     11          1           0       -2.701286    0.130222    2.073554
     12         17           0       -3.667122   -0.553215   -0.520834
     13         35           0       -1.629808    1.689568   -0.220857
     14          1           0       -1.568161   -2.008693   -1.269420
     15          7           0        1.047294   -0.216013   -0.186306
     16          6           0        2.433187   -0.067483   -0.051529
     17          6           0        2.905137    1.205654    0.279942
     18          6           0        4.256697    1.431485    0.466962
     19          6           0        5.168157    0.393655    0.324817
     20          6           0        4.701139   -0.870111   -0.001264
     21          6           0        3.347213   -1.112316   -0.188150
     22          1           0        0.524701    0.615679    0.035704
     23          1           0        2.201690    2.023137    0.391253
     24          1           0        4.598163    2.426678    0.722899
     25          1           0        6.226375    0.568970    0.468166
     26          1           0        5.398707   -1.691389   -0.111509
     27          1           0        2.995370   -2.098649   -0.441986
 ---------------------------------------------------------------------

 SCF Done:  E(RwB97XD) =  -3607.43111470     A.U. after    1 cycles

 The electronic state is 1-A.
 Alpha  occ. eigenvalues -- -483.14557-101.71622 -62.69406 -56.48522 -56.48168
 Alpha  occ. eigenvalues --  -56.48154 -19.20815 -14.50505 -14.46538 -10.45146
 Alpha  occ. eigenvalues --  -10.39202 -10.33852 -10.32280 -10.29103 -10.28953
 Alpha  occ. eigenvalues --  -10.28934 -10.28351 -10.28342 -10.26913  -9.60197
 Alpha  occ. eigenvalues --   -8.83509  -7.34877  -7.33954  -7.33930  -6.65656
 Alpha  occ. eigenvalues --   -6.64537  -6.64493  -2.76036  -2.75729  -2.75694
 Alpha  occ. eigenvalues --   -2.74790  -2.74788  -1.13835  -1.06208  -1.04161
 Alpha  occ. eigenvalues --   -0.99564  -0.95591  -0.90202  -0.86564  -0.85190
 Alpha  occ. eigenvalues --   -0.83386  -0.79832  -0.73922  -0.71675  -0.69043
 Alpha  occ. eigenvalues --   -0.65702  -0.64778  -0.62928  -0.59561  -0.58688
 Alpha  occ. eigenvalues --   -0.57987  -0.55755  -0.55012  -0.53661  -0.52354
 Alpha  occ. eigenvalues --   -0.52142  -0.51301  -0.50052  -0.48788  -0.48443
 Alpha  occ. eigenvalues --   -0.46711  -0.46475  -0.44692  -0.43068  -0.42127
 Alpha  occ. eigenvalues --   -0.41038  -0.39716  -0.38539  -0.38297  -0.34572
 Alpha  occ. eigenvalues --   -0.33655  -0.30917  -0.28475
 Alpha virt. eigenvalues --    0.02003   0.03410   0.05323   0.07160   0.08176
 Alpha virt. eigenvalues --    0.10032   0.13157   0.14067   0.14615   0.15923
 Alpha virt. eigenvalues --    0.16310   0.17076   0.17902   0.18123   0.18845

 Mulliken charges:
               1
     1  C   -0.489796
     2  C    0.395949
     3  O   -0.525482
     4  C    0.160214
     5  C   -0.285170
     6  H    0.166893
     7  H    0.161325
     8  H    0.158604
     9  N   -0.306536
    10  H    0.289739
    11  H    0.302433
    12  Cl  -0.060443
    13  Br  -0.090005
    14  H    0.153335
    15  N   -0.259356
    16  C    0.286963
    17  C   -0.292019
    18  C   -0.106640
    19  C   -0.193838
    20  C   -0.101443
    21  C   -0.296891
    22  H    0.206525
    23  H    0.144355
    24  H    0.143550
    25  H    0.140958
    26  H    0.141877
    27  H    0.154897
 Sum of Mulliken charges =  -0.00000

 Dipole moment (field-independent basis, Debye):
    X=             -4.5178    Y=              3.1750    Z=              8.5343  Tot=             10.1649
 Quadrupole moment (field-independent basis, Debye-Ang):
   XX=           -100.7568   YY=           -110.5417   ZZ=           -105.3559
   XY=              8.6607   XZ=             -7.7094   YZ=             -7.6692

  Exact polarizability: 314.356  -0.746 251.912  -3.526  19.173 183.316
 Approx polarizability: 231.902  -2.593 213.736  -1.367  18.562 159.306

 ******    1 imaginary frequencies (negative Signs) ******

                      1                      2                      3
                      A                      A                      A
 Frequencies --   -390.4625                20.8911                26.2978
 Red. masses --      5.3584                 5.5073                 4.0219
 Frc consts  --      0.4813                 0.0014                 0.0016
 IR Inten    --    707.9895                 2.9766                 1.6959

                      4                      5                      6
                      A                      A                      A
 Frequencies --     63.0098                66.6932                71.5418
 Red. masses --      3.1102                 4.4191                 5.2187
 Frc consts  --      0.0073                 0.0116                 0.0157
 IR Inten    --      4.0263                 1.5595                 2.8469

                      7                      8                      9
                      A                      A                      A
 Frequencies --     96.3513               143.6953               166.0864
 Red. masses --      3.3580                 3.8559                 2.4141
 Frc consts  --      0.0184                 0.0469                 0.0392
 IR Inten    --     16.9131                 3.5070                 4.6008

                     10                     11                     12
                      A                      A                      A
 Frequencies --    186.9058               208.8641               234.8511
 Red. masses --      2.9062                 6.7014                 7.1936
 Frc consts  --      0.0598                 0.1722                 0.2338
 IR Inten    --      6.0521                 0.7555                13.9006

                     13                     14                     15
                      A                      A                      A
 Frequencies --    255.0087               282.0657               299.9743
 Red. masses --      4.6925                 4.5613                 4.4114
 Frc consts  --      0.1798                 0.2138                 0.2339
 IR Inten    --      7.3668                17.4717                13.9072

                     16                     17                     18
                      A                      A                      A
 Frequencies --    354.5110               360.2396               424.7110
 Red. masses --      9.2947                 6.0161                 2.9762
 Frc consts  --      0.6882                 0.4600                 0.3163
 IR Inten    --     16.4534                11.8245                 0.3728

                     19                     20                     21
                      A                      A                      A
 Frequencies --    492.5624               504.8706               528.4104
 Red. masses --      6.3925                 3.0388                 2.8049
 Frc consts  --      0.9138                 0.4564                 0.4614
 IR Inten    --     19.9168                45.3622                31.4257

                     22                     23                     24
                      A                      A                      A
 Frequencies --    581.5552               591.3993               636.1235
 Red. masses --      1.2304                 2.9870                 6.0908
 Frc consts  --      0.2452                 0.6155                 1.4521
 IR Inten    --     98.8049               152.4594                 5.5247

                     25                     26                     27
                      A                      A                      A
 Frequencies --    669.7453               683.9075               719.1364
 Red. masses --      1.6183                 2.4437                 2.0143
 Frc consts  --      0.4277                 0.6734                 0.6138
 IR Inten    --     28.4425                61.5061                52.8911

                     28                     29                     30
                      A                      A                      A
 Frequencies --    726.8568               783.5688               792.0039
 Red. masses --      3.3084                 1.9027                 4.5815
 Frc consts  --      1.0298                 0.6883                 1.6932
 IR Inten    --     58.8062                46.0188               135.9901

                     31                     32                     33
                      A                      A                      A
 Frequencies --    848.5588               862.4102               899.2855
 Red. masses --      4.2490                 1.2652                 5.0080
 Frc consts  --      1.8026                 0.5544                 2.3862
 IR Inten    --    132.4216                 0.0762                32.9958

                     34                     35                     36
                      A                      A                      A
 Frequencies --    936.0514               995.0580              1002.8002
 Red. masses --      1.4826                 4.5488                 1.3519
 Frc consts  --      0.7654                 2.6536                 0.8010
 IR Inten    --     12.4991                24.7555                 0.1107

                     37                     38                     39
                      A                      A                      A
 Frequencies --   1016.7680              1019.3526              1022.1752
 Red. masses --      1.1552                 1.2882                 5.4776
 Frc consts  --      0.7036                 0.7886                 3.3720
 IR Inten    --     15.2484                 1.1635                 7.1399

                     40                     41                     42
                      A                      A                      A
 Frequencies --   1052.7294              1065.0018              1077.9010
 Red. masses --      1.1293                 2.0378                 5.0206
 Frc consts  --      0.7374                 1.3618                 3.4369
 IR Inten    --     82.3171                19.2405                64.5557

                     43                     44                     45
                      A                      A                      A
 Frequencies --   1123.0424              1183.0647              1210.7251
 Red. masses --      1.5275                 1.1227                 1.1299
 Frc consts  --      1.1351                 0.9258                 0.9758
 IR Inten    --     11.9946                 4.3927                18.2172

                     46                     47                     48
                      A                      A                      A
 Frequencies --   1230.5215              1253.0923              1274.9686
 Red. masses --      1.3994                 1.5816                 2.8067
 Frc consts  --      1.2484                 1.4633                 2.6881
 IR Inten    --     39.8098               508.4597               544.3940

                     49                     50                     51
                      A                      A                      A
 Frequencies --   1285.7626              1340.5783              1348.4770
 Red. masses --      2.9136                 1.3319                 3.8265
 Frc consts  --      2.8379                 1.4103                 4.0995
 IR Inten    --     51.5608                11.6238               481.4282

                     52                     53                     54
                      A                      A                      A
 Frequencies --   1364.0502              1450.0608              1471.8208
 Red. masses --      1.5397                 1.6158                 2.0219
 Frc consts  --      1.6879                 2.0018                 2.5805
 IR Inten    --     13.2851               395.2176               525.2553

                     55                     56                     57
                      A                      A                      A
 Frequencies --   1481.1452              1493.4210              1500.1113
 Red. masses --      2.1572                 1.0556                 1.0431
 Frc consts  --      2.7883                 1.3872                 1.3829
 IR Inten    --    184.1194                24.7798                 3.7706

                     58                     59                     60
                      A                      A                      A
 Frequencies --   1547.3032              1575.6865              1637.8883
 Red. masses --      2.4141                 2.0761                 1.0933
 Frc consts  --      3.4053                 3.0370                 1.7281
 IR Inten    --    177.2888               538.9393                84.0781

                     61                     62                     63
                      A                      A                      A
 Frequencies --   1661.2562              1672.7233              1685.3855
 Red. masses --      6.6794                 4.1238                 5.4926
 Frc consts  --     10.8608                 6.7982                 9.1924
 IR Inten    --    249.1613               106.5642               758.9635

                     64                     65                     66
                      A                      A                      A
 Frequencies --   3071.9612              3152.5422              3176.7456
 Red. masses --      1.0336                 1.1037                 1.1064
 Frc consts  --      5.7471                 6.4626                 6.5783
 IR Inten    --     28.4630                 3.6112                 7.8576

                     67                     68                     69
                      A                      A                      A
 Frequencies --   3186.7847              3197.4205              3207.0340
 Red. masses --      1.0883                 1.0882                 1.0931
 Frc consts  --      6.5121                 6.5546                 6.6239
 IR Inten    --     13.3636                 2.7267                28.8914

                     70                     71                     72
                      A                      A                      A
 Frequencies --   3222.0957              3228.2615              3271.5459
 Red. masses --      1.0979                 1.0879                 1.0923
 Frc consts  --      6.7160                 6.6799                 6.8883
 IR Inten    --     22.6310                 1.8464                 2.3234

                     73                     74                     75
                      A                      A                      A
 Frequencies --   3515.9808              3600.7931              3610.5060
 Red. masses --      1.0506                 1.0972                 1.0767
 Frc consts  --      7.6519                 8.3820                 8.2695
 IR Inten    --     56.3123                69.4468               174.4968

 - Thermochemistry -
 -------------------
 Temperature   298.150 Kelvin.  Pressure   1.00000 Atm.
 Atom     1 has atomic number  6 and mass  12.00000

 Molecular mass:   289.98215 amu.
 Principal axes and moments of inertia in atomic units:
                           1         2         3
     Eigenvalues --  2403.679858190.718779312.72958
           X            0.99964   0.02509  -0.00951
           Y           -0.02525   0.99954  -0.01680
           Z            0.00908   0.01704   0.99981
 This molecule is an asymmetric top.
 Rotational symmetry number  1.
 Warning -- assumption of classical behavior for rotation
           may cause significant error
 Rotational temperatures (Kelvin)      0.03603     0.01057     0.00930
 Rotational constants (GHZ):           0.75082     0.22034     0.19379
    1 imaginary frequencies ignored.
 Zero-point vibrational energy     550298.3 (Joules/Mol)
                                  131.52444 (Kcal/Mol)
 Warning -- explicit consideration of  22 degrees of freedom as
           vibrations may cause significant error
 Vibrational temperatures:     30.06    37.84    90.66    95.96   102.93
          (Kelvin)            138.63   206.75   238.96   268.92   300.51
                              337.90   366.90   405.83   431.60   510.06
                              518.30   611.06   708.69   726.40   760.26
                              836.73   850.89   915.24   963.61   983.99
                             1034.68  1045.78  1127.38  1139.52  1220.89
                             1240.82  1293.87  1346.77  1431.67  1442.81
                             1462.90  1466.62  1470.68  1514.64  1532.30
                             1550.86  1615.81  1702.17  1741.96  1770.45
                             1802.92  1834.40  1849.93  1928.79  1940.16
                             1962.56  2086.31  2117.62  2131.04  2148.70
                             2158.33  2226.22  2267.06  2356.56  2390.18
                             2406.68  2424.89  4419.87  4535.81  4570.63
                             4585.07  4600.37  4614.21  4635.88  4644.75
                             4707.02  5058.71  5180.74  5194.71

 Zero-point correction=                           0.209598 (Hartree/Particle)
 Thermal correction to Energy=                    0.225014
 Thermal correction to Enthalpy=                  0.225959
 Thermal correction to Gibbs Free Energy=         0.163655
 Sum of electronic and zero-point Energies=          -3607.221517
 Sum of electronic and thermal Energies=             -3607.206100
 Sum of electronic and thermal Enthalpies=           -3607.205156
 Sum of electronic and thermal Free Energies=        -3607.267459

                     E (Thermal)             CV                S
                      KCal/Mol        Cal/Mol-Kelvin    Cal/Mol-Kelvin
 Total                  141.199             55.421            131.129
 Electronic               0.000              0.000              0.000
 Translational            0.889              2.981             42.892
 Rotational               0.889              2.981             33.572
 Vibrational            139.421             49.459             54.665
 Vibration     1          0.593              1.986              6.548
 Vibration     2          0.593              1.985              6.091
 Vibration     3          0.597              1.972              4.361
 Vibration     4          0.598              1.970              4.249
 Vibration     5          0.598              1.968              4.110
 Vibration     6          0.603              1.952              3.527
 Vibration     7          0.616              1.909              2.754
 Vibration     8          0.624              1.884              2.479
 Vibration     9          0.632              1.858              2.258
 Vibration    10          0.642              1.827              2.054
 Vibration    11          0.655              1.787              1.842
 Vibration    12          0.665              1.754              1.696
 Vibration    13          0.681              1.707              1.521
 Vibration    14          0.693              1.674              1.417
 Vibration    15          0.730              1.566              1.146
 Vibration    16          0.735              1.554              1.121
 Vibration    17          0.787              1.416              0.876
 Vibration    18          0.848              1.267              0.677
 Vibration    19          0.860              1.239              0.646
 Vibration    20          0.883              1.187              0.591
 Vibration    21          0.938              1.071              0.482
 Vibration    22          0.949              1.050              0.465

 Optimization completed.
    -- Stationary point found.
 Normal termination of Gaussian 16 at Sun Feb 28 21:19:13 2021.
