 Gaussian 16, Revision A.03,
 Gaussian 16:  ES64L-G16RevA.03 25-Dec-2016

 ----------------------------------------------------------------------
 # wB97XD def2tzvp, opt=(ts, noeigen, calcfc, maxcycles=70, maxstep=1),
  freq=noraman, scrf=(iefpcm, solvent=water)
 ----------------------------------------------------------------------

 ------------------------
 0_iteration/TS-987-0.out
 ------------------------
 Symbolic Z-matrix:
 Charge =  0 Multiplicity = 1

 SCF Done:  E(RwB97XD) =  -3835.98557157     A.U. after   15 cycles
 SCF Done:  E(RwB97XD) =  -3835.98553272     A.U. after   10 cycles
 SCF Done:  E(RwB97XD) =  -3835.98549707     A.U. after   10 cycles
 SCF Done:  E(RwB97XD) =  -3835.98546462     A.U. after   10 cycles
 SCF Done:  E(RwB97XD) =  -3835.98543541     A.U. after   10 cycles
 SCF Done:  E(RwB97XD) =  -3835.98540946     A.U. after   10 cycles
 SCF Done:  E(RwB97XD) =  -3835.98538678     A.U. after   10 cycles
 SCF Done:  E(RwB97XD) =  -3835.98536743     A.U. after   10 cycles
 SCF Done:  E(RwB97XD) =  -3835.98535154     A.U. after   10 cycles
 SCF Done:  E(RwB97XD) =  -3835.98533939     A.U. after   10 cycles
 SCF Done:  E(RwB97XD) =  -3835.98795870     A.U. after   10 cycles
 SCF Done:  E(RwB97XD) =  -3835.98796876     A.U. after   10 cycles
 SCF Done:  E(RwB97XD) =  -3835.98797887     A.U. after   10 cycles
 SCF Done:  E(RwB97XD) =  -3835.98797797     A.U. after   10 cycles
 SCF Done:  E(RwB97XD) =  -3835.98797575     A.U. after   10 cycles
 SCF Done:  E(RwB97XD) =  -3835.98797556     A.U. after   10 cycles
 SCF Done:  E(RwB97XD) =  -3835.98797753     A.U. after    9 cycles
 SCF Done:  E(RwB97XD) =  -3835.98797782     A.U. after    9 cycles
 SCF Done:  E(RwB97XD) =  -3835.98797746     A.U. after    7 cycles
 Optimization completed.
    -- Stationary point found.
 Normal termination of Gaussian 16 at Sun Feb 28 03:00:37 2021.

 ---------------------------------------------------------------------
 #N Geom=AllCheck Guess=TCheck SCRF=Check GenChk RwB97XD/def2TZVP Freq
 ---------------------------------------------------------------------

 Structure from the checkpoint file:  "/beegfs/scratch/user/q/tla25/Gau-107387.chk"
 ------------------------
 0_iteration/TS-987-0.out
 ------------------------
 Charge =  0 Multiplicity = 1

                         Standard orientation:
 ---------------------------------------------------------------------
 Center     Atomic      Atomic             Coordinates (Angstroms)
 Number     Number       Type             X           Y           Z
 ---------------------------------------------------------------------
      1          6           0        0.358726    0.381559   -0.256400
      2          6           0        0.603723    1.808267   -0.042650
      3          8           0        1.736395    2.264622    0.089426
      4          6           0       -0.878892   -0.247120   -0.261099
      5          6           0       -0.818046   -0.498827    2.522393
      6          1           0       -1.238490   -0.269007    3.500597
      7          1           0       -0.622763   -1.566481    2.452614
      8          1           0        0.115611    0.048727    2.397777
      9          7           0       -1.730538   -0.104005    1.456015
     10          1           0       -2.584739   -0.651285    1.449478
     11          1           0       -1.978820    0.876967    1.534017
     12         17           0       -0.948459   -1.979870   -0.470456
     13         17           0       -2.233431    0.482441   -1.187879
     14         35           0        1.941192   -0.673942   -0.181069
     15          7           0       -0.475747    2.643314    0.104894
     16          1           0       -1.348145    2.429843   -0.346193
     17          1           0       -0.232478    3.620099    0.125584
 ---------------------------------------------------------------------

 SCF Done:  E(RwB97XD) =  -3835.98797746     A.U. after    1 cycles

 The electronic state is 1-A.
 Alpha  occ. eigenvalues -- -483.12635-101.72209-101.72003 -62.67465 -56.46594
 Alpha  occ. eigenvalues --  -56.46222 -56.46213 -19.21149 -14.50210 -14.44600
 Alpha  occ. eigenvalues --  -10.46655 -10.39684 -10.32514 -10.32366  -9.60790
 Alpha  occ. eigenvalues --   -9.60605  -8.81582  -7.35485  -7.35265  -7.34548
 Alpha  occ. eigenvalues --   -7.34501  -7.34373  -7.34339  -6.63771  -6.62582
 Alpha  occ. eigenvalues --   -6.62556  -2.74154  -2.73808  -2.73788  -2.72826
 Alpha  occ. eigenvalues --   -2.72825  -1.14136  -1.06682  -1.01845  -1.00090
 Alpha  occ. eigenvalues --   -0.94489  -0.91420  -0.82414  -0.79830  -0.72823
 Alpha  occ. eigenvalues --   -0.65811  -0.64489  -0.61901  -0.59366  -0.59137
 Alpha  occ. eigenvalues --   -0.56387  -0.55486  -0.51881  -0.50504  -0.49109
 Alpha  occ. eigenvalues --   -0.48800  -0.47144  -0.44081  -0.42803  -0.41088
 Alpha  occ. eigenvalues --   -0.40064  -0.39948  -0.37322  -0.36229  -0.34204
 Alpha  occ. eigenvalues --   -0.28693
 Alpha virt. eigenvalues --    0.02144   0.04808   0.05556   0.10343   0.12672
 Alpha virt. eigenvalues --    0.14110   0.14465   0.15968   0.17132   0.18205
 Alpha virt. eigenvalues --    0.18768   0.19742   0.21167   0.23326   0.24803

 Mulliken charges:
               1
     1  C   -0.239593
     2  C    0.278724
     3  O   -0.489928
     4  C    0.132935
     5  C   -0.297392
     6  H    0.167763
     7  H    0.162107
     8  H    0.163871
     9  N   -0.320776
    10  H    0.300267
    11  H    0.286119
    12  Cl  -0.024118
    13  Cl  -0.069744
    14  Br  -0.104988
    15  N   -0.472611
    16  H    0.257374
    17  H    0.269991
 Sum of Mulliken charges =   0.00000

 Dipole moment (field-independent basis, Debye):
    X=             -9.6640    Y=             -1.0315    Z=              4.5470  Tot=             10.7300
 Quadrupole moment (field-independent basis, Debye-Ang):
   XX=            -85.9708   YY=            -83.0268   ZZ=            -77.5520
   XY=            -10.5443   XZ=             -7.2771   YZ=             -3.1232

  Exact polarizability: 187.611   5.537 165.802  -3.002  -3.460 133.979
 Approx polarizability: 156.157   2.196 139.472  -0.688  -1.637 115.669

 ******    1 imaginary frequencies (negative Signs) ******

                      1                      2                      3
                      A                      A                      A
 Frequencies --   -370.5626                39.3482                71.2362
 Red. masses --      5.5261                 8.9261                 4.8826
 Frc consts  --      0.4471                 0.0081                 0.0146
 IR Inten    --    635.2255                13.8237                 3.4064

                      4                      5                      6
                      A                      A                      A
 Frequencies --     82.0181               118.8733               164.2969
 Red. masses --      2.4964                 3.2185                 2.1463
 Frc consts  --      0.0099                 0.0268                 0.0341
 IR Inten    --      5.5357                10.9160                 0.4727

                      7                      8                      9
                      A                      A                      A
 Frequencies --    181.1289               197.0909               210.8726
 Red. masses --     22.7715                 2.0672                 7.6366
 Frc consts  --      0.4402                 0.0473                 0.2001
 IR Inten    --      0.2394                 4.0334                13.2781

                     10                     11                     12
                      A                      A                      A
 Frequencies --    256.9502               268.9048               301.1211
 Red. masses --      5.2769                 9.8673                 4.6080
 Frc consts  --      0.2053                 0.4204                 0.2462
 IR Inten    --      4.4145                 2.9211                 7.2038

                     13                     14                     15
                      A                      A                      A
 Frequencies --    329.7414               375.2083               409.7737
 Red. masses --      8.0949                 6.3767                 4.0652
 Frc consts  --      0.5186                 0.5289                 0.4022
 IR Inten    --     24.4042                 9.0571                 8.9488

                     16                     17                     18
                      A                      A                      A
 Frequencies --    453.8517               510.3833               546.2655
 Red. masses --      1.3820                 2.1451                 1.8763
 Frc consts  --      0.1677                 0.3292                 0.3299
 IR Inten    --    127.2382               387.2703                42.9220

                     19                     20                     21
                      A                      A                      A
 Frequencies --    628.5230               665.6282               745.3620
 Red. masses --      3.7770                 1.5000                 6.8403
 Frc consts  --      0.8791                 0.3916                 2.2390
 IR Inten    --     49.3013                28.7149               263.0572

                     22                     23                     24
                      A                      A                      A
 Frequencies --    781.4500               866.3323              1010.9715
 Red. masses --      9.4531                 4.4614                 1.1006
 Frc consts  --      3.4012                 1.9728                 0.6628
 IR Inten    --     70.3654                71.2398                20.1840

                     25                     26                     27
                      A                      A                      A
 Frequencies --   1017.0769              1053.2545              1082.1534
 Red. masses --      5.7075                 1.1937                 4.8201
 Frc consts  --      3.4786                 0.7802                 3.3257
 IR Inten    --     11.6196                59.2318                53.6907

                     28                     29                     30
                      A                      A                      A
 Frequencies --   1113.6477              1230.5751              1344.4007
 Red. masses --      1.7790                 1.3951                 1.3726
 Frc consts  --      1.2999                 1.2447                 1.4617
 IR Inten    --    134.0013                29.0968                57.8739

                     31                     32                     33
                      A                      A                      A
 Frequencies --   1363.2786              1395.1346              1461.7955
 Red. masses --      3.8141                 7.3564                 1.2137
 Frc consts  --      4.1765                 8.4363                 1.5281
 IR Inten    --    799.9844               549.9742                10.5373

                     34                     35                     36
                      A                      A                      A
 Frequencies --   1491.7668              1501.6610              1616.8556
 Red. masses --      1.0414                 1.0310                 1.3005
 Frc consts  --      1.3654                 1.3698                 2.0031
 IR Inten    --     26.6741                12.9307               308.3556

                     37                     38                     39
                      A                      A                      A
 Frequencies --   1631.6210              1681.8811              3075.1443
 Red. masses --      1.0925                 5.4919                 1.0328
 Frc consts  --      1.7137                 9.1529                 5.7541
 IR Inten    --     93.4660               678.1956                20.6796

                     40                     41                     42
                      A                      A                      A
 Frequencies --   3155.0037              3174.6664              3511.1079
 Red. masses --      1.1052                 1.1061                 1.0507
 Frc consts  --      6.4814                 6.5679                 7.6319
 IR Inten    --      7.3407                 8.3516                64.8383

                     43                     44                     45
                      A                      A                      A
 Frequencies --   3597.5370              3600.9143              3711.9464
 Red. masses --      1.0968                 1.0471                 1.1015
 Frc consts  --      8.3632                 7.9992                 8.9420
 IR Inten    --     79.3768                48.3118               130.0234

 - Thermochemistry -
 -------------------
 Temperature   298.150 Kelvin.  Pressure   1.00000 Atm.
 Atom     1 has atomic number  6 and mass  12.00000

 Molecular mass:   247.91188 amu.
 Principal axes and moments of inertia in atomic units:
                           1         2         3
     Eigenvalues --  2225.260362957.212003788.94930
           X            0.99901   0.03276  -0.03001
           Y           -0.03348   0.99915  -0.02392
           Z            0.02920   0.02490   0.99926
 This molecule is an asymmetric top.
 Rotational symmetry number  1.
 Warning -- assumption of classical behavior for rotation
           may cause significant error
 Rotational temperatures (Kelvin)      0.03892     0.02929     0.02286
 Rotational constants (GHZ):           0.81102     0.61028     0.47632
    1 imaginary frequencies ignored.
 Zero-point vibrational energy     311189.1 (Joules/Mol)
                                   74.37598 (Kcal/Mol)
 Warning -- explicit consideration of  17 degrees of freedom as
           vibrations may cause significant error
 Vibrational temperatures:     56.61   102.49   118.01   171.03   236.39
          (Kelvin)            260.60   283.57   303.40   369.69   386.89
                              433.25   474.42   539.84   589.57   652.99
                              734.33   785.95   904.30   957.69  1072.41
                             1124.33  1246.46  1454.56  1463.35  1515.40
                             1556.98  1602.29  1770.52  1934.29  1961.45
                             2007.29  2103.20  2146.32  2160.56  2326.29
                             2347.54  2419.85  4424.45  4539.35  4567.64
                             5051.70  5176.05  5180.91  5340.66

 Zero-point correction=                           0.118526 (Hartree/Particle)
 Thermal correction to Energy=                    0.130566
 Thermal correction to Enthalpy=                  0.131510
 Thermal correction to Gibbs Free Energy=         0.078658
 Sum of electronic and zero-point Energies=          -3835.869452
 Sum of electronic and thermal Energies=             -3835.857412
 Sum of electronic and thermal Enthalpies=           -3835.856468
 Sum of electronic and thermal Free Energies=        -3835.909319

                     E (Thermal)             CV                S
                      KCal/Mol        Cal/Mol-Kelvin    Cal/Mol-Kelvin
 Total                   81.931             41.061            111.235
 Electronic               0.000              0.000              0.000
 Translational            0.889              2.981             42.424
 Rotational               0.889              2.981             31.589
 Vibrational             80.154             35.100             37.222
 Vibration     1          0.594              1.981              5.292
 Vibration     2          0.598              1.968              4.119
 Vibration     3          0.600              1.961              3.842
 Vibration     4          0.609              1.934              3.119
 Vibration     5          0.623              1.886              2.500
 Vibration     6          0.630              1.865              2.317
 Vibration     7          0.636              1.844              2.160
 Vibration     8          0.643              1.824              2.036
 Vibration     9          0.667              1.751              1.682
 Vibration    10          0.673              1.730              1.603
 Vibration    11          0.693              1.672              1.411
 Vibration    12          0.713              1.616              1.261
 Vibration    13          0.746              1.523              1.058
 Vibration    14          0.774              1.449              0.927
 Vibration    15          0.812              1.352              0.784
 Vibration    16          0.866              1.227              0.633
 Vibration    17          0.901              1.148              0.552

 Optimization completed.
    -- Stationary point found.
 Normal termination of Gaussian 16 at Sun Feb 28 03:15:04 2021.
