 Gaussian 16, Revision A.03,
 Gaussian 16:  ES64L-G16RevA.03 25-Dec-2016

 ----------------------------------------------------------------------
 # wB97XD def2tzvp, opt=(ts, noeigen, calcfc, maxcycles=70, maxstep=5),
  freq=noraman, scrf=(iefpcm, solvent=water)
 ----------------------------------------------------------------------

 ------------------------
 2_iteration/TS-926-2.out
 ------------------------
 Symbolic Z-matrix:
 Charge =  0 Multiplicity = 1

 SCF Done:  E(RwB97XD) =  -3686.04438539     A.U. after   16 cycles
 Optimization completed.
    -- Stationary point found.
 Normal termination of Gaussian 16 at Sun Feb 28 21:51:27 2021.

 ---------------------------------------------------------------------
 #N Geom=AllCheck Guess=TCheck SCRF=Check GenChk RwB97XD/def2TZVP Freq
 ---------------------------------------------------------------------

 Structure from the checkpoint file:  "/beegfs/scratch/user/q/tla25/Gau-69655.chk"
 ------------------------
 2_iteration/TS-926-2.out
 ------------------------
 Charge =  0 Multiplicity = 1

                         Standard orientation:
 ---------------------------------------------------------------------
 Center     Atomic      Atomic             Coordinates (Angstroms)
 Number     Number       Type             X           Y           Z
 ---------------------------------------------------------------------
      1          6           0        0.249731    0.082340    0.059700
      2          6           0       -0.297698    1.292441    0.765190
      3          8           0       -0.681838    1.200561    1.938420
      4          6           0       -0.706781   -0.895609   -0.119540
      5          6           0       -0.186692   -2.317080    2.169230
      6          1           0       -0.476632   -2.544579    3.194220
      7          1           0        0.047327   -3.240850    1.645430
      8          1           0        0.686959   -1.667301    2.180090
      9          7           0       -1.263591   -1.617388    1.475210
     10          1           0       -2.096422   -2.186287    1.362670
     11          1           0       -1.491120   -0.751498    1.965000
     12         17           0       -0.380352   -2.326429   -1.080120
     13         35           0       -2.540760   -0.227437   -0.650170
     14          6           0        1.709490   -0.033722   -0.072430
     15          6           0        2.411729   -1.251722   -0.091560
     16          6           0        3.790279   -1.299884   -0.219140
     17          6           0        4.542250   -0.137865   -0.305890
     18          6           0        3.878642    1.078136   -0.247780
     19          6           0        2.499482    1.129627   -0.133890
     20          1           0        1.884158   -2.185782    0.016070
     21          1           0        4.281168   -2.265805   -0.231630
     22          1           0        5.619730   -0.179266   -0.399530
     23          1           0        4.437193    2.005475   -0.292910
     24          1           0        2.030683    2.101668   -0.083360
     25          7           0       -0.369947    2.461501    0.100190
     26          6           0       -0.199017    2.586820   -1.332620
     27          6           0       -0.880305    3.636771    0.777330
     28          1           0        0.114662    1.635600   -1.752320
     29          1           0       -1.144686    2.882122   -1.794490
     30          1           0        0.550554    3.347620   -1.560300
     31          1           0       -0.654195    3.579051    1.837940
     32          1           0       -0.410064    4.523201    0.352120
     33          1           0       -1.963925    3.721422    0.652270
 ---------------------------------------------------------------------

 SCF Done:  E(RwB97XD) =  -3686.04438539     A.U. after    1 cycles

 The electronic state is 1-A.
 Alpha  occ. eigenvalues -- -483.12844-101.71311 -62.67689 -56.46799 -56.46450
 Alpha  occ. eigenvalues --  -56.46448 -19.21769 -14.50080 -14.47058 -10.44487
 Alpha  occ. eigenvalues --  -10.39056 -10.32156 -10.31099 -10.30880 -10.30842
 Alpha  occ. eigenvalues --  -10.28388 -10.28386 -10.27906 -10.27894 -10.27792
 Alpha  occ. eigenvalues --  -10.27352  -9.59904  -8.81781  -7.34571  -7.33667
 Alpha  occ. eigenvalues --   -7.33640  -6.63903  -6.62807  -6.62795  -2.74280
 Alpha  occ. eigenvalues --   -2.73979  -2.73970  -2.73084  -2.73083  -1.14547
 Alpha  occ. eigenvalues --   -1.05964  -1.04246  -0.99061  -0.95854  -0.89836
 Alpha  occ. eigenvalues --   -0.87397  -0.84369  -0.82704  -0.81668  -0.79765
 Alpha  occ. eigenvalues --   -0.79182  -0.71232  -0.69648  -0.67162  -0.64847
 Alpha  occ. eigenvalues --   -0.62851  -0.61501  -0.59618  -0.57931  -0.57045
 Alpha  occ. eigenvalues --   -0.56705  -0.55702  -0.54902  -0.53457  -0.52379
 Alpha  occ. eigenvalues --   -0.50382  -0.49929  -0.49044  -0.48780  -0.48743
 Alpha  occ. eigenvalues --   -0.48375  -0.47381  -0.46723  -0.46198  -0.45955
 Alpha  occ. eigenvalues --   -0.43856  -0.42344  -0.40870  -0.40117  -0.37607
 Alpha  occ. eigenvalues --   -0.36878  -0.35693  -0.35182  -0.33167  -0.32894
 Alpha  occ. eigenvalues --   -0.25242
 Alpha virt. eigenvalues --    0.02254   0.04541   0.05821   0.07239   0.10393
 Alpha virt. eigenvalues --    0.10559   0.12153   0.12997   0.13807   0.14796
 Alpha virt. eigenvalues --    0.15718   0.16099   0.16404   0.17679   0.17811

 Mulliken charges:
               1
     1  C   -0.349060
     2  C    0.300362
     3  O   -0.532083
     4  C    0.182713
     5  C   -0.333174
     6  H    0.169881
     7  H    0.164307
     8  H    0.171943
     9  N   -0.234045
    10  H    0.290980
    11  H    0.283993
    12  Cl  -0.052771
    13  Br  -0.151897
    14  C    0.266131
    15  C   -0.323438
    16  C   -0.147554
    17  C   -0.181713
    18  C   -0.179972
    19  C   -0.261207
    20  H    0.146551
    21  H    0.135180
    22  H    0.136210
    23  H    0.134119
    24  H    0.159265
    25  N   -0.100763
    26  C   -0.323063
    27  C   -0.283736
    28  H    0.176910
    29  H    0.151482
    30  H    0.155391
    31  H    0.146964
    32  H    0.141466
    33  H    0.140628
 Sum of Mulliken charges =  -0.00000

 Dipole moment (field-independent basis, Debye):
    X=             -1.7800    Y=             -1.4451    Z=              1.3183  Tot=              2.6447
 Quadrupole moment (field-independent basis, Debye-Ang):
   XX=           -121.3961   YY=            -97.7257   ZZ=           -123.9702
   XY=              3.1487   XZ=             -3.8013   YZ=            -14.3055

  Exact polarizability: 364.989   8.484 292.708  -6.113 -13.543 218.210
 Approx polarizability: 265.926   3.735 239.075  -6.199  -8.271 190.400

 ******    1 imaginary frequencies (negative Signs) ******

                      1                      2                      3
                      A                      A                      A
 Frequencies --   -424.9811                36.9012                57.5374
 Red. masses --      6.2443                 4.0254                 5.4121
 Frc consts  --      0.6645                 0.0032                 0.0106
 IR Inten    --    747.1328                 0.2421                 3.2158

                      4                      5                      6
                      A                      A                      A
 Frequencies --     64.2009                79.1449                81.9594
 Red. masses --      4.2470                 3.3503                 2.7833
 Frc consts  --      0.0103                 0.0124                 0.0110
 IR Inten    --      5.1345                 3.7858                 2.1163

                      7                      8                      9
                      A                      A                      A
 Frequencies --     95.0898               108.5743               130.3033
 Red. masses --      1.7234                 1.7829                 7.6166
 Frc consts  --      0.0092                 0.0124                 0.0762
 IR Inten    --      3.0074                11.4697                 3.1584

                     10                     11                     12
                      A                      A                      A
 Frequencies --    150.7941               173.1511               190.7760
 Red. masses --      5.0851                 3.2252                 3.2800
 Frc consts  --      0.0681                 0.0570                 0.0703
 IR Inten    --     11.2664                 2.4427                30.4666

                     13                     14                     15
                      A                      A                      A
 Frequencies --    206.3065               216.5380               223.5471
 Red. masses --      1.5993                 5.0385                 3.5640
 Frc consts  --      0.0401                 0.1392                 0.1049
 IR Inten    --      5.4885                34.4786                 8.9130

                     16                     17                     18
                      A                      A                      A
 Frequencies --    232.9155               252.3845               276.8785
 Red. masses --      2.0312                 1.9559                 4.1281
 Frc consts  --      0.0649                 0.0734                 0.1865
 IR Inten    --      5.0033                 4.6486                22.8407

                     19                     20                     21
                      A                      A                      A
 Frequencies --    284.3017               296.4218               335.6275
 Red. masses --      4.3631                 3.0519                 5.5750
 Frc consts  --      0.2078                 0.1580                 0.3700
 IR Inten    --     38.0020                 4.7617                22.1201

                     22                     23                     24
                      A                      A                      A
 Frequencies --    377.7666               422.8444               428.7443
 Red. masses --      4.0947                 3.0422                 3.1021
 Frc consts  --      0.3443                 0.3205                 0.3360
 IR Inten    --     17.0321                 1.5220                 4.4495

                     25                     26                     27
                      A                      A                      A
 Frequencies --    475.7813               510.0549               536.0794
 Red. masses --      4.2105                 3.9059                 5.0794
 Frc consts  --      0.5616                 0.5987                 0.8600
 IR Inten    --    117.1959                 9.7489               160.5545

                     28                     29                     30
                      A                      A                      A
 Frequencies --    637.5685               649.4431               671.6980
 Red. masses --      6.2524                 4.8098                 2.8275
 Frc consts  --      1.4974                 1.1952                 0.7516
 IR Inten    --      1.5384                88.3729                 0.5772

                     31                     32                     33
                      A                      A                      A
 Frequencies --    716.2955               724.4116               733.5775
 Red. masses --      8.4799                 1.7449                 4.6172
 Frc consts  --      2.5635                 0.5395                 1.4639
 IR Inten    --    222.0672                64.4049                41.3584

                     34                     35                     36
                      A                      A                      A
 Frequencies --    765.6060               791.5366               840.4707
 Red. masses --      2.4368                 2.2702                 4.1903
 Frc consts  --      0.8416                 0.8380                 1.7440
 IR Inten    --     61.3972               108.5475                81.1795

                     37                     38                     39
                      A                      A                      A
 Frequencies --    867.8936               934.0202               950.5083
 Red. masses --      1.2615                 1.5230                 3.7635
 Frc consts  --      0.5599                 0.7828                 2.0033
 IR Inten    --      2.5722                 9.2703                42.6225

                     40                     41                     42
                      A                      A                      A
 Frequencies --   1007.7783              1015.1678              1017.4399
 Red. masses --      1.3600                 1.9825                 1.8517
 Frc consts  --      0.8138                 1.2038                 1.1294
 IR Inten    --      0.3352                 8.1294                 9.1902

                     43                     44                     45
                      A                      A                      A
 Frequencies --   1023.2545              1033.5265              1072.3444
 Red. masses --      1.3816                 2.6805                 2.1375
 Frc consts  --      0.8523                 1.6870                 1.4482
 IR Inten    --     40.8369                32.8380                24.0896

                     46                     47                     48
                      A                      A                      A
 Frequencies --   1075.0141              1087.1447              1109.8268
 Red. masses --      3.2023                 1.3714                 1.3598
 Frc consts  --      2.1804                 0.9549                 0.9868
 IR Inten    --     19.1337                18.4014               133.4849

                     49                     50                     51
                      A                      A                      A
 Frequencies --   1125.2746              1129.1574              1178.3111
 Red. masses --      1.6300                 1.2383                 1.3969
 Frc consts  --      1.2161                 0.9302                 1.1427
 IR Inten    --      2.3979                 1.1963                12.4798

                     52                     53                     54
                      A                      A                      A
 Frequencies --   1184.6172              1191.5633              1229.4724
 Red. masses --      1.1189                 2.3546                 1.1483
 Frc consts  --      0.9251                 1.9697                 1.0227
 IR Inten    --      0.1677               145.4161                17.7968

                     55                     56                     57
                      A                      A                      A
 Frequencies --   1254.5160              1265.8815              1312.0161
 Red. masses --      1.3874                 3.9615                 5.2304
 Frc consts  --      1.2865                 3.7402                 5.3047
 IR Inten    --     76.1126               164.2943                37.9379

                     58                     59                     60
                      A                      A                      A
 Frequencies --   1319.5422              1364.2318              1371.2315
 Red. masses --      5.9538                 1.2816                 1.5709
 Frc consts  --      6.1079                 1.4053                 1.7403
 IR Inten    --     57.2448                34.0188               217.7571

                     61                     62                     63
                      A                      A                      A
 Frequencies --   1415.5230              1444.1270              1449.3235
 Red. masses --      3.4941                 1.4359                 1.3857
 Frc consts  --      4.1249                 1.7644                 1.7149
 IR Inten    --   1271.7134               111.5327                59.6850

                     64                     65                     66
                      A                      A                      A
 Frequencies --   1456.8501              1475.2846              1482.1754
 Red. masses --      1.2526                 1.2096                 1.0801
 Frc consts  --      1.5664                 1.5511                 1.3980
 IR Inten    --     56.5605                41.2187                 3.6132

                     67                     68                     69
                      A                      A                      A
 Frequencies --   1490.9794              1492.3476              1496.9942
 Red. masses --      1.1326                 1.9019                 1.0948
 Frc consts  --      1.4834                 2.4956                 1.4456
 IR Inten    --     12.7105               133.6446                10.4405

                     70                     71                     72
                      A                      A                      A
 Frequencies --   1501.0077              1505.7297              1540.7509
 Red. masses --      1.0522                 1.0355                 2.1018
 Frc consts  --      1.3967                 1.3833                 2.9398
 IR Inten    --     15.4296                25.4839               270.9274

                     73                     74                     75
                      A                      A                      A
 Frequencies --   1545.7107              1602.7623              1632.2165
 Red. masses --      1.8275                 1.2242                 5.2360
 Frc consts  --      2.5725                 1.8528                 8.2188
 IR Inten    --    158.6363               239.7052                20.5904

                     76                     77                     78
                      A                      A                      A
 Frequencies --   1653.3717              1667.9505              3042.7338
 Red. masses --      4.1865                 5.7314                 1.0412
 Frc consts  --      6.7428                 9.3945                 5.6797
 IR Inten    --    641.8489               136.0321                41.9954

                     79                     80                     81
                      A                      A                      A
 Frequencies --   3046.2047              3078.2497              3104.4028
 Red. masses --      1.0411                 1.0327                 1.1033
 Frc consts  --      5.6920                 5.7654                 6.2648
 IR Inten    --    103.0469                26.5348                47.4776

                     82                     83                     84
                      A                      A                      A
 Frequencies --   3120.6587              3159.9270              3178.3165
 Red. masses --      1.0954                 1.1049                 1.1062
 Frc consts  --      6.2852                 6.4999                 6.5839
 IR Inten    --     25.5433                 8.4793                 9.1167

                     85                     86                     87
                      A                      A                      A
 Frequencies --   3181.0932              3183.4513              3189.1649
 Red. masses --      1.1015                 1.0986                 1.0861
 Frc consts  --      6.5674                 6.5596                 6.5085
 IR Inten    --      7.4113                 6.6908                 6.5637

                     88                     89                     90
                      A                      A                      A
 Frequencies --   3195.6855              3216.4037              3237.8982
 Red. masses --      1.0907                 1.0963                 1.0910
 Frc consts  --      6.5628                 6.6824                 6.7392
 IR Inten    --     27.4525                36.2005                11.2172

                     91                     92                     93
                      A                      A                      A
 Frequencies --   3258.7785              3436.7557              3570.1004
 Red. masses --      1.0901                 1.0581                 1.0914
 Frc consts  --      6.8208                 7.3631                 8.1961
 IR Inten    --      7.0833               121.2108               113.8836

 - Thermochemistry -
 -------------------
 Temperature   298.150 Kelvin.  Pressure   1.00000 Atm.
 Atom     1 has atomic number  6 and mass  12.00000

 Molecular mass:   318.01345 amu.
 Principal axes and moments of inertia in atomic units:
                           1         2         3
     Eigenvalues --  4099.045646168.049098166.70262
           X            0.99944  -0.02518  -0.02187
           Y            0.02410   0.99854  -0.04844
           Z            0.02306   0.04788   0.99859
 This molecule is an asymmetric top.
 Rotational symmetry number  1.
 Warning -- assumption of classical behavior for rotation
           may cause significant error
 Rotational temperatures (Kelvin)      0.02113     0.01404     0.01061
 Rotational constants (GHZ):           0.44028     0.29260     0.22099
    1 imaginary frequencies ignored.
 Zero-point vibrational energy     699503.8 (Joules/Mol)
                                  167.18541 (Kcal/Mol)
 Warning -- explicit consideration of  26 degrees of freedom as
           vibrations may cause significant error
 Vibrational temperatures:     53.09    82.78    92.37   113.87   117.92
          (Kelvin)            136.81   156.21   187.48   216.96   249.13
                              274.48   296.83   311.55   321.63   335.11
                              363.13   398.37   409.05   426.48   482.89
                              543.52   608.38   616.87   684.54   733.86
                              771.30   917.32   934.40   966.42  1030.59
                             1042.27  1055.45  1101.54  1138.84  1209.25
                             1248.71  1343.85  1367.57  1449.97  1460.60
                             1463.87  1472.24  1487.01  1542.86  1546.71
                             1564.16  1596.79  1619.02  1624.61  1695.33
                             1704.40  1714.39  1768.94  1804.97  1821.32
                             1887.70  1898.53  1962.83  1972.90  2036.62
                             2077.78  2085.25  2096.08  2122.61  2132.52
                             2145.19  2147.16  2153.84  2159.62  2166.41
                             2216.80  2223.93  2306.02  2348.40  2378.83
                             2399.81  4377.82  4382.81  4428.91  4466.54
                             4489.93  4546.43  4572.89  4576.88  4580.28
                             4588.50  4597.88  4627.69  4658.61  4688.66
                             4944.72  5136.58

 Zero-point correction=                           0.266427 (Hartree/Particle)
 Thermal correction to Energy=                    0.284744
 Thermal correction to Enthalpy=                  0.285688
 Thermal correction to Gibbs Free Energy=         0.219042
 Sum of electronic and zero-point Energies=          -3685.777958
 Sum of electronic and thermal Energies=             -3685.759641
 Sum of electronic and thermal Enthalpies=           -3685.758697
 Sum of electronic and thermal Free Energies=        -3685.825343

                     E (Thermal)             CV                S
                      KCal/Mol        Cal/Mol-Kelvin    Cal/Mol-Kelvin
 Total                  178.680             65.898            140.269
 Electronic               0.000              0.000              0.000
 Translational            0.889              2.981             43.167
 Rotational               0.889              2.981             33.690
 Vibrational            176.902             59.937             63.412
 Vibration     1          0.594              1.982              5.419
 Vibration     2          0.596              1.974              4.540
 Vibration     3          0.597              1.971              4.324
 Vibration     4          0.600              1.963              3.912
 Vibration     5          0.600              1.962              3.843
 Vibration     6          0.603              1.953              3.553
 Vibration     7          0.606              1.942              3.294
 Vibration     8          0.612              1.923              2.942
 Vibration     9          0.618              1.902              2.662
 Vibration    10          0.627              1.876              2.401
 Vibration    11          0.634              1.853              2.220
 Vibration    12          0.641              1.831              2.076
 Vibration    13          0.645              1.816              1.988
 Vibration    14          0.649              1.805              1.930
 Vibration    15          0.654              1.791              1.856
 Vibration    16          0.664              1.759              1.714
 Vibration    17          0.678              1.716              1.553
 Vibration    18          0.683              1.703              1.508
 Vibration    19          0.690              1.680              1.437
 Vibration    20          0.717              1.604              1.233
 Vibration    21          0.748              1.518              1.048
 Vibration    22          0.785              1.421              0.882
 Vibration    23          0.790              1.408              0.863
 Vibration    24          0.832              1.304              0.722
 Vibration    25          0.865              1.228              0.633
 Vibration    26          0.891              1.170              0.574

 Optimization completed.
    -- Stationary point found.
 Normal termination of Gaussian 16 at Sun Feb 28 23:40:45 2021.
