 Gaussian 16, Revision A.03,
 Gaussian 16:  ES64L-G16RevA.03 25-Dec-2016

 ----------------------------------------------------------------------
 # wB97XD def2tzvp, opt=(ts, noeigen, calcfc, maxcycles=70, maxstep=8),
  freq=noraman, scrf=(iefpcm, solvent=water)
 ----------------------------------------------------------------------

 ------------------------
 1_iteration/TS-974-1.out
 ------------------------
 Symbolic Z-matrix:
 Charge =  0 Multiplicity = 1

 SCF Done:  E(RwB97XD) =  -1340.98354706     A.U. after   15 cycles
 SCF Done:  E(RwB97XD) =  -1340.98383979     A.U. after   12 cycles
 SCF Done:  E(RwB97XD) =  -1340.98384612     A.U. after   10 cycles
 SCF Done:  E(RwB97XD) =  -1340.98384745     A.U. after    9 cycles
 SCF Done:  E(RwB97XD) =  -1340.98384764     A.U. after    8 cycles
 Optimization completed.
    -- Stationary point found.
 Normal termination of Gaussian 16 at Sun Feb 28 14:13:36 2021.

 ---------------------------------------------------------------------
 #N Geom=AllCheck Guess=TCheck SCRF=Check GenChk RwB97XD/def2TZVP Freq
 ---------------------------------------------------------------------

 Structure from the checkpoint file:  "/beegfs/scratch/user/q/tla25/Gau-118734.chk"
 ------------------------
 1_iteration/TS-974-1.out
 ------------------------
 Charge =  0 Multiplicity = 1

                         Standard orientation:
 ---------------------------------------------------------------------
 Center     Atomic      Atomic             Coordinates (Angstroms)
 Number     Number       Type             X           Y           Z
 ---------------------------------------------------------------------
      1          6           0        0.006725    0.352250   -0.960819
      2          6           0       -1.326597    0.763570   -0.534303
      3          8           0       -1.683658    1.947052   -0.634712
      4          6           0        0.982345   -0.207126   -0.129182
      5          6           0        1.750534    2.170257    0.754371
      6          1           0        0.874458    2.553483    0.236738
      7          1           0        1.957674    2.766872    1.639476
      8          1           0        2.611439    2.179072    0.091588
      9          7           0        1.472565    0.785495    1.161045
     10          1           0        0.690560    0.761611    1.811318
     11          1           0        2.270847    0.365362    1.632036
     12         17           0        2.553476   -0.462980   -0.961880
     13         17           0        0.604278   -1.683867    0.858387
     14          1           0        0.428944    1.028350   -1.694442
     15          7           0       -2.200980   -0.162381   -0.019596
     16          6           0       -2.261081   -1.527946   -0.502967
     17          6           0       -3.447618    0.320322    0.535373
     18          1           0       -1.390042   -1.744584   -1.113512
     19          1           0       -2.300507   -2.238330    0.325102
     20          1           0       -3.161062   -1.662087   -1.114340
     21          1           0       -3.282201    1.246929    1.078859
     22          1           0       -4.198760    0.505449   -0.241515
     23          1           0       -3.840839   -0.431907    1.220791
 ---------------------------------------------------------------------

 SCF Done:  E(RwB97XD) =  -1340.98384764     A.U. after    1 cycles

 The electronic state is 1-A.
 Alpha  occ. eigenvalues -- -101.70568-101.70191 -19.19727 -14.53494 -14.44798
 Alpha  occ. eigenvalues --  -10.45767 -10.37246 -10.32951 -10.30109 -10.29966
 Alpha  occ. eigenvalues --  -10.24534  -9.59168  -9.58809  -7.33820  -7.33441
 Alpha  occ. eigenvalues --   -7.32935  -7.32916  -7.32589  -7.32559  -1.12342
 Alpha  occ. eigenvalues --   -1.09420  -1.02163  -0.99284  -0.92839  -0.85091
 Alpha  occ. eigenvalues --   -0.81275  -0.80740  -0.77593  -0.69601  -0.66791
 Alpha  occ. eigenvalues --   -0.62392  -0.60927  -0.59506  -0.56451  -0.56233
 Alpha  occ. eigenvalues --   -0.54868  -0.53678  -0.50499  -0.49635  -0.49246
 Alpha  occ. eigenvalues --   -0.48069  -0.47766  -0.46516  -0.45536  -0.43798
 Alpha  occ. eigenvalues --   -0.42590  -0.41222  -0.40320  -0.39146  -0.34248
 Alpha  occ. eigenvalues --   -0.31271  -0.26954
 Alpha virt. eigenvalues --    0.05724   0.07340   0.09248   0.10042   0.12801
 Alpha virt. eigenvalues --    0.13928   0.14763   0.15418   0.16786   0.17771
 Alpha virt. eigenvalues --    0.18401   0.19017   0.19464   0.19923   0.20849

 Mulliken charges:
               1
     1  C   -0.518147
     2  C    0.288209
     3  O   -0.540016
     4  C    0.150337
     5  C   -0.304226
     6  H    0.168557
     7  H    0.175039
     8  H    0.166125
     9  N   -0.204946
    10  H    0.305143
    11  H    0.308075
    12  Cl  -0.106749
    13  Cl  -0.113028
    14  H    0.137011
    15  N   -0.146185
    16  C   -0.284159
    17  C   -0.289488
    18  H    0.151359
    19  H    0.138345
    20  H    0.125267
    21  H    0.135162
    22  H    0.124716
    23  H    0.133597
 Sum of Mulliken charges =  -0.00000

 Dipole moment (field-independent basis, Debye):
    X=              4.1426    Y=             -0.1134    Z=              6.5326  Tot=              7.7362
 Quadrupole moment (field-independent basis, Debye-Ang):
   XX=            -73.8134   YY=            -85.7948   ZZ=            -76.7757
   XY=             16.3211   XZ=              4.0737   YZ=              7.4454

  Exact polarizability: 189.128   0.764 166.345   0.400  -6.896 143.020
 Approx polarizability: 144.496  -0.834 140.854  -1.695  -7.178 126.090

 ******    1 imaginary frequencies (negative Signs) ******

                      1                      2                      3
                      A                      A                      A
 Frequencies --   -166.5809                44.8330                66.2161
 Red. masses --      5.4933                 4.4997                 5.8050
 Frc consts  --      0.0898                 0.0053                 0.0150
 IR Inten    --    410.3686                32.5342                14.9890

                      4                      5                      6
                      A                      A                      A
 Frequencies --     77.9320               111.6044               149.1446
 Red. masses --      4.0853                 1.9234                 1.4689
 Frc consts  --      0.0146                 0.0141                 0.0193
 IR Inten    --      0.0851                15.7987                 3.7571

                      7                      8                      9
                      A                      A                      A
 Frequencies --    169.6558               181.3465               207.8795
 Red. masses --      3.2292                 2.0501                 3.0754
 Frc consts  --      0.0548                 0.0397                 0.0783
 IR Inten    --      4.6410                 1.4594                 4.4011

                     10                     11                     12
                      A                      A                      A
 Frequencies --    216.8213               240.2236               251.0866
 Red. masses --      2.1398                 2.2655                 3.7995
 Frc consts  --      0.0593                 0.0770                 0.1411
 IR Inten    --     13.1067                25.5423                 8.8735

                     13                     14                     15
                      A                      A                      A
 Frequencies --    311.5975               328.5945               363.3533
 Red. masses --      1.2806                 3.9013                 3.6088
 Frc consts  --      0.0733                 0.2482                 0.2807
 IR Inten    --      4.6654                64.8775                27.5097

                     16                     17                     18
                      A                      A                      A
 Frequencies --    371.0360               389.6611               430.4652
 Red. masses --      4.4373                 6.8022                 2.7190
 Frc consts  --      0.3599                 0.6085                 0.2968
 IR Inten    --     72.9951                40.6816                28.4129

                     19                     20                     21
                      A                      A                      A
 Frequencies --    524.6976               591.2740               621.7518
 Red. masses --      1.8592                 6.5015                 4.5587
 Frc consts  --      0.3016                 1.3392                 1.0383
 IR Inten    --    132.9501               171.6197                82.7912

                     22                     23                     24
                      A                      A                      A
 Frequencies --    645.9821               754.0874               785.3012
 Red. masses --      3.5639                 3.3005                 3.4165
 Frc consts  --      0.8762                 1.1058                 1.2414
 IR Inten    --     77.0305                14.0505               102.9000

                     25                     26                     27
                      A                      A                      A
 Frequencies --    808.7851               897.8798              1016.6170
 Red. masses --      2.6059                 2.5061                 2.2925
 Frc consts  --      1.0043                 1.1904                 1.3960
 IR Inten    --     95.0717               132.9340                69.4900

                     28                     29                     30
                      A                      A                      A
 Frequencies --   1046.2444              1082.2851              1086.7176
 Red. masses --      2.6172                 1.3810                 1.3289
 Frc consts  --      1.6879                 0.9531                 0.9247
 IR Inten    --     11.9061                27.2919                23.2761

                     31                     32                     33
                      A                      A                      A
 Frequencies --   1123.6705              1133.4083              1173.9685
 Red. masses --      1.4215                 1.2302                 1.3913
 Frc consts  --      1.0575                 0.9311                 1.1298
 IR Inten    --     47.5187                 1.5274                21.5877

                     34                     35                     36
                      A                      A                      A
 Frequencies --   1212.9502              1242.5619              1301.1552
 Red. masses --      2.9903                 1.6769                 4.5174
 Frc consts  --      2.5921                 1.5255                 4.5060
 IR Inten    --    231.8797               532.5650                40.7590

                     37                     38                     39
                      A                      A                      A
 Frequencies --   1321.1955              1351.4426              1397.5795
 Red. masses --      1.3199                 1.2557                 2.6867
 Frc consts  --      1.3574                 1.3512                 3.0919
 IR Inten    --     85.9308                 1.7676               732.5552

                     40                     41                     42
                      A                      A                      A
 Frequencies --   1418.0513              1440.1937              1458.1286
 Red. masses --      2.4079                 1.1575                 1.1912
 Frc consts  --      2.8528                 1.4146                 1.4921
 IR Inten    --    168.6658                10.0429                13.4468

                     43                     44                     45
                      A                      A                      A
 Frequencies --   1467.2342              1480.3427              1495.5026
 Red. masses --      1.2037                 1.0840                 1.0319
 Frc consts  --      1.5268                 1.3996                 1.3597
 IR Inten    --     59.1118                12.3199                16.0583

                     46                     47                     48
                      A                      A                      A
 Frequencies --   1499.1782              1502.1604              1506.1390
 Red. masses --      1.0566                 1.0439                 1.0582
 Frc consts  --      1.3992                 1.3878                 1.4143
 IR Inten    --     11.4018                29.6532                33.0807

                     49                     50                     51
                      A                      A                      A
 Frequencies --   1529.1304              1621.4883              1628.7280
 Red. masses --      1.3396                 7.4284                 1.0846
 Frc consts  --      1.8456                11.5073                 1.6952
 IR Inten    --    213.2201               790.4419                87.8655

                     52                     53                     54
                      A                      A                      A
 Frequencies --   3017.4376              3020.0703              3089.7698
 Red. masses --      1.0468                 1.0506                 1.0929
 Frc consts  --      5.6154                 5.6458                 6.1473
 IR Inten    --     57.3418               169.6119                71.2652

                     55                     56                     57
                      A                      A                      A
 Frequencies --   3092.7890              3101.5429              3167.0175
 Red. masses --      1.0319                 1.0898                 1.1003
 Frc consts  --      5.8158                 6.1766                 6.5022
 IR Inten    --     16.6924                33.4646                17.3948

                     58                     59                     60
                      A                      A                      A
 Frequencies --   3183.0800              3186.5537              3188.7436
 Red. masses --      1.0971                 1.1008                 1.0913
 Frc consts  --      6.5494                 6.5855                 6.5379
 IR Inten    --     10.4350                 0.6177                 5.3777

                     61                     62                     63
                      A                      A                      A
 Frequencies --   3195.4360              3485.6076              3561.5634
 Red. masses --      1.1073                 1.0515                 1.0968
 Frc consts  --      6.6618                 7.5266                 8.1969
 IR Inten    --      2.4114                64.4413                80.5100

 - Thermochemistry -
 -------------------
 Temperature   298.150 Kelvin.  Pressure   1.00000 Atm.
 Atom     1 has atomic number  6 and mass  12.00000

 Molecular mass:   198.03267 amu.
 Principal axes and moments of inertia in atomic units:
                           1         2         3
     Eigenvalues --  1540.699053086.704763715.63905
           X            0.99831   0.05653   0.01329
           Y           -0.05723   0.99653   0.06038
           Z           -0.00983  -0.06104   0.99809
 This molecule is an asymmetric top.
 Rotational symmetry number  1.
 Warning -- assumption of classical behavior for rotation
           may cause significant error
 Rotational temperatures (Kelvin)      0.05622     0.02806     0.02331
 Rotational constants (GHZ):           1.17138     0.58468     0.48571
    1 imaginary frequencies ignored.
 Zero-point vibrational energy     486682.1 (Joules/Mol)
                                  116.31982 (Kcal/Mol)
 Warning -- explicit consideration of  19 degrees of freedom as
           vibrations may cause significant error
 Vibrational temperatures:     64.50    95.27   112.13   160.57   214.59
          (Kelvin)            244.10   260.92   299.09   311.96   345.63
                              361.26   448.32   472.77   522.78   533.84
                              560.64   619.34   754.92   850.71   894.56
                              929.42  1084.96  1129.87  1163.66  1291.85
                             1462.69  1505.31  1557.17  1563.54  1616.71
                             1630.72  1689.08  1745.16  1787.77  1872.07
                             1900.91  1944.42  2010.81  2040.26  2072.12
                             2097.92  2111.02  2129.88  2151.69  2156.98
                             2161.27  2167.00  2200.08  2332.96  2343.38
                             4341.42  4345.21  4445.49  4449.83  4462.43
                             4556.63  4579.74  4584.74  4587.89  4597.52
                             5015.01  5124.30

 Zero-point correction=                           0.185367 (Hartree/Particle)
 Thermal correction to Energy=                    0.198600
 Thermal correction to Enthalpy=                  0.199544
 Thermal correction to Gibbs Free Energy=         0.145103
 Sum of electronic and zero-point Energies=          -1340.798480
 Sum of electronic and thermal Energies=             -1340.785248
 Sum of electronic and thermal Enthalpies=           -1340.784304
 Sum of electronic and thermal Free Energies=        -1340.838745

                     E (Thermal)             CV                S
                      KCal/Mol        Cal/Mol-Kelvin    Cal/Mol-Kelvin
 Total                  124.623             46.415            114.580
 Electronic               0.000              0.000              0.000
 Translational            0.889              2.981             41.755
 Rotational               0.889              2.981             31.247
 Vibrational            122.846             40.453             41.579
 Vibration     1          0.595              1.979              5.033
 Vibration     2          0.598              1.970              4.263
 Vibration     3          0.599              1.964              3.942
 Vibration     4          0.607              1.940              3.241
 Vibration     5          0.618              1.904              2.683
 Vibration     6          0.625              1.880              2.439
 Vibration     7          0.630              1.865              2.315
 Vibration     8          0.641              1.829              2.062
 Vibration     9          0.646              1.815              1.985
 Vibration    10          0.657              1.779              1.801
 Vibration    11          0.663              1.761              1.723
 Vibration    12          0.700              1.652              1.354
 Vibration    13          0.712              1.618              1.267
 Vibration    14          0.737              1.548              1.108
 Vibration    15          0.743              1.532              1.076
 Vibration    16          0.758              1.492              1.001
 Vibration    17          0.792              1.404              0.857
 Vibration    18          0.880              1.195              0.599
 Vibration    19          0.949              1.050              0.465

 Optimization completed.
    -- Stationary point found.
 Normal termination of Gaussian 16 at Sun Feb 28 14:39:04 2021.
