 Gaussian 16, Revision A.03,
 Gaussian 16:  ES64L-G16RevA.03 25-Dec-2016

 ----------------------------------------------------------------------
 # wB97XD def2tzvp, opt=(ts, noeigen, calcfc, maxcycles=70, maxstep=8),
  freq=noraman, scrf=(iefpcm, solvent=water)
 ----------------------------------------------------------------------

 ------------------------
 1_iteration/TS-942-1.out
 ------------------------
 Symbolic Z-matrix:
 Charge =  0 Multiplicity = 1

 SCF Done:  E(RwB97XD) =  -3494.31199489     A.U. after   15 cycles
 SCF Done:  E(RwB97XD) =  -3494.31199489     A.U. after    6 cycles
 Optimization completed.
    -- Stationary point found.
 Normal termination of Gaussian 16 at Sun Feb 28 18:11:29 2021.

 ---------------------------------------------------------------------
 #N Geom=AllCheck Guess=TCheck SCRF=Check GenChk RwB97XD/def2TZVP Freq
 ---------------------------------------------------------------------

 Structure from the checkpoint file:  "/beegfs/scratch/user/q/tla25/Gau-96681.chk"
 ------------------------
 1_iteration/TS-942-1.out
 ------------------------
 Charge =  0 Multiplicity = 1

                         Standard orientation:
 ---------------------------------------------------------------------
 Center     Atomic      Atomic             Coordinates (Angstroms)
 Number     Number       Type             X           Y           Z
 ---------------------------------------------------------------------
      1          6           0       -0.426987    0.705907   -0.400731
      2          6           0       -1.457857    0.070063    0.422324
      3          8           0       -1.206649   -0.373185    1.558931
      4          6           0        0.863952    0.268865   -0.222520
      5          6           0        1.386403    1.983366    1.916516
      6          1           0        0.451460    2.385444    1.523090
      7          1           0        1.403220    2.128650    2.996855
      8          1           0        2.224440    2.512440    1.467950
      9          7           0        1.449034    0.573243    1.570255
     10          1           0        2.347242    0.147352    1.764498
     11          1           0        0.687298    0.051981    2.007412
     12         17           0        2.126303    1.052043   -1.147382
     13         35           0        1.227147   -1.695150   -0.174599
     14          6           0       -0.738211    1.954914   -1.198760
     15          1           0       -0.693935    1.802289   -2.281316
     16          1           0       -1.741519    2.305733   -0.959079
     17          1           0       -0.051579    2.768178   -0.958595
     18          7           0       -2.731722    0.018603   -0.053592
     19          6           0       -3.058258    0.015510   -1.464691
     20          6           0       -3.801619   -0.389550    0.830960
     21          1           0       -2.152703   -0.005905   -2.063898
     22          1           0       -3.639129   -0.880707   -1.697715
     23          1           0       -3.651128    0.890396   -1.743827
     24          1           0       -3.578866   -0.082218    1.849060
     25          1           0       -4.728749    0.085106    0.506620
     26          1           0       -3.945890   -1.475092    0.818721
 ---------------------------------------------------------------------

 SCF Done:  E(RwB97XD) =  -3494.31199489     A.U. after    1 cycles

 The electronic state is 1-A.
 Alpha  occ. eigenvalues -- -483.12525-101.70973 -62.67377 -56.46490 -56.46137
 Alpha  occ. eigenvalues --  -56.46132 -19.20672 -14.48036 -14.45665 -10.43314
 Alpha  occ. eigenvalues --  -10.37880 -10.31503 -10.30834 -10.30394 -10.27689
 Alpha  occ. eigenvalues --  -10.26816  -9.59556  -8.81481  -7.34215  -7.33328
 Alpha  occ. eigenvalues --   -7.33296  -6.63617  -6.62503  -6.62485  -2.73996
 Alpha  occ. eigenvalues --   -2.73687  -2.73672  -2.72772  -2.72771  -1.13271
 Alpha  occ. eigenvalues --   -1.04271  -1.03006  -0.98639  -0.89060  -0.86857
 Alpha  occ. eigenvalues --   -0.81515  -0.79147  -0.78668  -0.76862  -0.67640
 Alpha  occ. eigenvalues --   -0.63747  -0.61559  -0.58623  -0.57314  -0.56482
 Alpha  occ. eigenvalues --   -0.55966  -0.54281  -0.53025  -0.51450  -0.49440
 Alpha  occ. eigenvalues --   -0.48682  -0.48317  -0.48089  -0.46518  -0.46317
 Alpha  occ. eigenvalues --   -0.45814  -0.45285  -0.45015  -0.41010  -0.39913
 Alpha  occ. eigenvalues --   -0.36876  -0.36779  -0.34467  -0.31964  -0.26753
 Alpha virt. eigenvalues --    0.03082   0.05550   0.09902   0.10579   0.12455
 Alpha virt. eigenvalues --    0.13776   0.14808   0.15381   0.16504   0.16835
 Alpha virt. eigenvalues --    0.17852   0.18799   0.18992   0.19184   0.20350

 Mulliken charges:
               1
     1  C   -0.382692
     2  C    0.362685
     3  O   -0.572104
     4  C    0.211813
     5  C   -0.304260
     6  H    0.157058
     7  H    0.157885
     8  H    0.153449
     9  N   -0.298645
    10  H    0.281841
    11  H    0.280525
    12  Cl  -0.064166
    13  Br  -0.146906
    14  C   -0.398120
    15  H    0.135601
    16  H    0.140637
    17  H    0.137963
    18  N   -0.116309
    19  C   -0.298595
    20  C   -0.291816
    21  H    0.157023
    22  H    0.143133
    23  H    0.141493
    24  H    0.139367
    25  H    0.139421
    26  H    0.133720
 Sum of Mulliken charges =  -0.00000

 Dipole moment (field-independent basis, Debye):
    X=             -0.1620    Y=              3.4785    Z=              0.9495  Tot=              3.6094
 Quadrupole moment (field-independent basis, Debye-Ang):
   XX=            -79.1951   YY=            -91.9992   ZZ=            -90.3558
   XY=              2.9600   XZ=             12.3457   YZ=              4.4007

  Exact polarizability: 230.038   2.205 190.536  12.211  -3.247 182.211
 Approx polarizability: 174.415   0.899 156.633   7.615  -5.288 155.344

 ******    1 imaginary frequencies (negative Signs) ******

                      1                      2                      3
                      A                      A                      A
 Frequencies --   -428.9653                52.0642                82.6886
 Red. masses --      5.9390                 4.5095                 3.4573
 Frc consts  --      0.6439                 0.0072                 0.0139
 IR Inten    --    720.6201                 3.0849                 6.0443

                      4                      5                      6
                      A                      A                      A
 Frequencies --     96.9441               112.0564               135.8746
 Red. masses --      2.9451                 2.2738                 1.6834
 Frc consts  --      0.0163                 0.0168                 0.0183
 IR Inten    --      0.4649                 5.5237                10.9049

                      7                      8                      9
                      A                      A                      A
 Frequencies --    142.5773               155.1301               163.1842
 Red. masses --      5.4329                 2.2640                 1.3780
 Frc consts  --      0.0651                 0.0321                 0.0216
 IR Inten    --     11.0656                 0.4825                 0.2127

                     10                     11                     12
                      A                      A                      A
 Frequencies --    183.0422               198.3334               209.0725
 Red. masses --      1.3905                 3.5736                 2.4853
 Frc consts  --      0.0274                 0.0828                 0.0640
 IR Inten    --      0.8520                20.8121                 2.7764

                     13                     14                     15
                      A                      A                      A
 Frequencies --    219.2834               241.9236               260.3933
 Red. masses --      1.7639                 2.4847                 2.1619
 Frc consts  --      0.0500                 0.0857                 0.0864
 IR Inten    --      1.2143                12.7031                23.5123

                     16                     17                     18
                      A                      A                      A
 Frequencies --    276.6864               310.6741               329.9359
 Red. masses --      3.2496                 3.4012                 4.2812
 Frc consts  --      0.1466                 0.1934                 0.2746
 IR Inten    --     27.1211                 4.3392                18.7017

                     19                     20                     21
                      A                      A                      A
 Frequencies --    355.5087               367.2715               418.0515
 Red. masses --      4.4298                 4.0583                 3.0298
 Frc consts  --      0.3299                 0.3225                 0.3120
 IR Inten    --      6.3574                71.5874                 5.1247

                     22                     23                     24
                      A                      A                      A
 Frequencies --    497.4691               596.7834               646.9359
 Red. masses --      4.2616                 4.1127                 3.2866
 Frc consts  --      0.6214                 0.8630                 0.8104
 IR Inten    --     68.4465                97.1148                26.0451

                     25                     26                     27
                      A                      A                      A
 Frequencies --    720.8179               760.3127               780.8102
 Red. masses --      2.4632                 5.6994                 2.7517
 Frc consts  --      0.7540                 1.9412                 0.9884
 IR Inten    --     97.8873               121.1294                39.7723

                     28                     29                     30
                      A                      A                      A
 Frequencies --    807.9862               985.7681               998.3774
 Red. masses --      7.3959                 1.9213                 1.3199
 Frc consts  --      2.8448                 1.1000                 0.7751
 IR Inten    --    154.9036                69.0855                45.9658

                     31                     32                     33
                      A                      A                      A
 Frequencies --   1036.9188              1067.4865              1084.5905
 Red. masses --      1.5788                 1.3582                 1.5062
 Frc consts  --      1.0002                 0.9119                 1.0439
 IR Inten    --    224.4996                51.7638                58.4888

                     34                     35                     36
                      A                      A                      A
 Frequencies --   1089.8470              1091.4824              1133.9420
 Red. masses --      1.7316                 1.8385                 1.2353
 Frc consts  --      1.2118                 1.2904                 0.9359
 IR Inten    --     73.7376               110.3840                 1.3376

                     37                     38                     39
                      A                      A                      A
 Frequencies --   1148.7533              1171.3233              1211.9446
 Red. masses --      2.2763                 1.4080                 1.3943
 Frc consts  --      1.7698                 1.1381                 1.2066
 IR Inten    --     80.9681                30.4656                54.3592

                     40                     41                     42
                      A                      A                      A
 Frequencies --   1270.6618              1319.7074              1356.4309
 Red. masses --      4.6710                 5.0198                 1.2931
 Frc consts  --      4.4435                 5.1510                 1.4018
 IR Inten    --    134.1818                81.1979                16.0157

                     43                     44                     45
                      A                      A                      A
 Frequencies --   1407.7497              1420.1803              1448.2658
 Red. masses --      1.8019                 2.1732                 1.3125
 Frc consts  --      2.1039                 2.5825                 1.6220
 IR Inten    --    353.6999               778.0249                20.2647

                     46                     47                     48
                      A                      A                      A
 Frequencies --   1451.6968              1461.1188              1479.7338
 Red. masses --      1.2308                 1.5125                 1.2161
 Frc consts  --      1.5282                 1.9024                 1.5688
 IR Inten    --      2.1470                67.6012                 7.0821

                     49                     50                     51
                      A                      A                      A
 Frequencies --   1482.9617              1488.7588              1489.9846
 Red. masses --      1.0593                 1.0627                 1.0417
 Frc consts  --      1.3725                 1.3878                 1.3626
 IR Inten    --     16.1579                35.3499                 8.6166

                     52                     53                     54
                      A                      A                      A
 Frequencies --   1491.1154              1501.1925              1503.8986
 Red. masses --      1.0919                 1.0352                 1.0576
 Frc consts  --      1.4304                 1.3745                 1.4093
 IR Inten    --     61.7214                36.4715                10.0600

                     55                     56                     57
                      A                      A                      A
 Frequencies --   1510.7892              1540.0488              1607.2000
 Red. masses --      1.0860                 1.6074                 2.0621
 Frc consts  --      1.4605                 2.2461                 3.1384
 IR Inten    --     59.6033               170.2241               596.1187

                     58                     59                     60
                      A                      A                      A
 Frequencies --   1641.0668              3030.2340              3033.7260
 Red. masses --      1.7613                 1.0456                 1.0441
 Frc consts  --      2.7947                 5.6569                 5.6618
 IR Inten    --    178.4351                89.1989                77.5374

                     61                     62                     63
                      A                      A                      A
 Frequencies --   3039.6888              3064.4660              3093.0554
 Red. masses --      1.0393                 1.0334                 1.1032
 Frc consts  --      5.6580                 5.7177                 6.2183
 IR Inten    --    129.1067                42.9118                55.2102

                     64                     65                     66
                      A                      A                      A
 Frequencies --   3096.8827              3106.1359              3136.7989
 Red. masses --      1.0950                 1.0943                 1.1025
 Frc consts  --      6.1876                 6.2208                 6.3915
 IR Inten    --     42.6712                28.5524                19.0351

                     67                     68                     69
                      A                      A                      A
 Frequencies --   3138.4635              3166.9538              3173.3956
 Red. masses --      1.1008                 1.1049                 1.1001
 Frc consts  --      6.3884                 6.5290                 6.5271
 IR Inten    --     18.5800                14.7930                12.5166

                     70                     71                     72
                      A                      A                      A
 Frequencies --   3178.4982              3415.8753              3590.7762
 Red. masses --      1.0977                 1.0613                 1.0885
 Frc consts  --      6.5339                 7.2962                 8.2687
 IR Inten    --     11.9092               139.3681               110.8566

 - Thermochemistry -
 -------------------
 Temperature   298.150 Kelvin.  Pressure   1.00000 Atm.
 Atom     1 has atomic number  6 and mass  12.00000

 Molecular mass:   255.99780 amu.
 Principal axes and moments of inertia in atomic units:
                           1         2         3
     Eigenvalues --  2393.543884096.681794610.84293
           X            0.99799   0.04791   0.04153
           Y           -0.04903   0.99845   0.02632
           Z           -0.04020  -0.02831   0.99879
 This molecule is an asymmetric top.
 Rotational symmetry number  1.
 Warning -- assumption of classical behavior for rotation
           may cause significant error
 Rotational temperatures (Kelvin)      0.03619     0.02114     0.01878
 Rotational constants (GHZ):           0.75400     0.44054     0.39141
    1 imaginary frequencies ignored.
 Zero-point vibrational energy     557936.9 (Joules/Mol)
                                  133.35011 (Kcal/Mol)
 Warning -- explicit consideration of  22 degrees of freedom as
           vibrations may cause significant error
 Vibrational temperatures:     74.91   118.97   139.48   161.22   195.49
          (Kelvin)            205.14   223.20   234.79   263.36   285.36
                              300.81   315.50   348.07   374.65   398.09
                              446.99   474.70   511.50   528.42   601.48
                              715.75   858.64   930.80  1037.10  1093.92
                             1123.41  1162.51  1418.30  1436.44  1491.89
                             1535.87  1560.48  1568.05  1570.40  1631.49
                             1652.80  1685.27  1743.72  1828.20  1898.76
                             1951.60  2025.44  2043.32  2083.73  2088.67
                             2102.22  2129.01  2133.65  2141.99  2143.76
                             2145.38  2159.88  2163.77  2173.69  2215.79
                             2312.40  2361.13  4359.83  4364.86  4373.43
                             4409.08  4450.22  4455.72  4469.04  4513.15
                             4515.55  4556.54  4565.81  4573.15  4914.68
                             5166.33

 Zero-point correction=                           0.212507 (Hartree/Particle)
 Thermal correction to Energy=                    0.227685
 Thermal correction to Enthalpy=                  0.228629
 Thermal correction to Gibbs Free Energy=         0.169984
 Sum of electronic and zero-point Energies=          -3494.099488
 Sum of electronic and thermal Energies=             -3494.084310
 Sum of electronic and thermal Enthalpies=           -3494.083365
 Sum of electronic and thermal Free Energies=        -3494.142011

                     E (Thermal)             CV                S
                      KCal/Mol        Cal/Mol-Kelvin    Cal/Mol-Kelvin
 Total                  142.875             52.716            123.429
 Electronic               0.000              0.000              0.000
 Translational            0.889              2.981             42.520
 Rotational               0.889              2.981             32.181
 Vibrational            141.097             46.754             48.729
 Vibration     1          0.596              1.977              4.737
 Vibration     2          0.600              1.961              3.826
 Vibration     3          0.603              1.951              3.515
 Vibration     4          0.607              1.939              3.233
 Vibration     5          0.614              1.918              2.861
 Vibration     6          0.616              1.911              2.769
 Vibration     7          0.620              1.897              2.608
 Vibration     8          0.623              1.888              2.513
 Vibration     9          0.631              1.863              2.297
 Vibration    10          0.637              1.842              2.149
 Vibration    11          0.642              1.827              2.052
 Vibration    12          0.647              1.812              1.965
 Vibration    13          0.658              1.776              1.789
 Vibration    14          0.668              1.745              1.659
 Vibration    15          0.678              1.717              1.554
 Vibration    16          0.700              1.653              1.359
 Vibration    17          0.713              1.616              1.260
 Vibration    18          0.731              1.564              1.142
 Vibration    19          0.740              1.540              1.091
 Vibration    20          0.781              1.431              0.899
 Vibration    21          0.853              1.256              0.664
 Vibration    22          0.955              1.039              0.455

 Optimization completed.
    -- Stationary point found.
 Normal termination of Gaussian 16 at Sun Feb 28 18:47:10 2021.
