 Gaussian 16, Revision A.03,
 Gaussian 16:  ES64L-G16RevA.03 25-Dec-2016

 ----------------------------------------------------------------------
 # wB97XD def2tzvp, opt=(ts, noeigen, calcfc, maxcycles=70, maxstep=8),
  freq=noraman, scrf=(iefpcm, solvent=water)
 ----------------------------------------------------------------------

 ------------------------
 1_iteration/TS-910-1.out
 ------------------------
 Symbolic Z-matrix:
 Charge =  0 Multiplicity = 1

 SCF Done:  E(RwB97XD) =  -3494.32056442     A.U. after   15 cycles
 SCF Done:  E(RwB97XD) =  -3494.32118238     A.U. after   13 cycles
 SCF Done:  E(RwB97XD) =  -3494.32127305     A.U. after   12 cycles
 SCF Done:  E(RwB97XD) =  -3494.32131532     A.U. after   10 cycles
 SCF Done:  E(RwB97XD) =  -3494.32131631     A.U. after    9 cycles
 SCF Done:  E(RwB97XD) =  -3494.32127150     A.U. after   12 cycles
 SCF Done:  E(RwB97XD) =  -3494.32131632     A.U. after   12 cycles
 SCF Done:  E(RwB97XD) =  -3494.32131650     A.U. after    7 cycles
 Optimization completed.
    -- Stationary point found.
 Normal termination of Gaussian 16 at Sun Feb 28 15:10:16 2021.

 ---------------------------------------------------------------------
 #N Geom=AllCheck Guess=TCheck SCRF=Check GenChk RwB97XD/def2TZVP Freq
 ---------------------------------------------------------------------

 Structure from the checkpoint file:  "/beegfs/scratch/user/q/tla25/Gau-22154.chk"
 ------------------------
 1_iteration/TS-910-1.out
 ------------------------
 Charge =  0 Multiplicity = 1

                         Standard orientation:
 ---------------------------------------------------------------------
 Center     Atomic      Atomic             Coordinates (Angstroms)
 Number     Number       Type             X           Y           Z
 ---------------------------------------------------------------------
      1          6           0       -0.149955   -0.074333    0.326546
      2          6           0       -1.122689    0.974098   -0.005569
      3          8           0       -0.756412    2.066506   -0.479411
      4          6           0        1.177389    0.305214    0.582237
      5          6           0        3.217347    1.589674   -1.099543
      6          1           0        3.481124    1.817589   -2.133164
      7          1           0        3.231666    2.511565   -0.523066
      8          1           0        3.952564    0.898672   -0.689343
      9          7           0        1.889605    0.985852   -1.017254
     10          1           0        1.134145    1.644822   -1.211789
     11          1           0        1.797715    0.202207   -1.653602
     12         17           0        2.329214   -1.005712    0.911373
     13          6           0        1.434118    1.459700    1.521672
     14          1           0        0.820533    2.312771    1.245035
     15          1           0        1.178840    1.146542    2.533287
     16          1           0        2.483634    1.746383    1.509022
     17         35           0       -0.471543   -1.751450   -0.564316
     18          7           0       -2.441086    0.729346    0.190629
     19          6           0       -2.954733   -0.306101    1.060669
     20          6           0       -3.423974    1.654165   -0.331580
     21          1           0       -2.144554   -0.746124    1.635464
     22          1           0       -3.675039    0.135531    1.753818
     23          1           0       -3.458311   -1.093040    0.493360
     24          1           0       -3.018464    2.176352   -1.193592
     25          1           0       -4.312490    1.096797   -0.631745
     26          1           0       -3.717340    2.394844    0.419085
 ---------------------------------------------------------------------

 SCF Done:  E(RwB97XD) =  -3494.32131650     A.U. after    1 cycles

 The electronic state is 1-A.
 Alpha  occ. eigenvalues -- -483.11976-101.69952 -62.66797 -56.45904 -56.45566
 Alpha  occ. eigenvalues --  -56.45560 -19.20911 -14.48293 -14.45976 -10.40482
 Alpha  occ. eigenvalues --  -10.38469 -10.31833 -10.30671 -10.30496 -10.29857
 Alpha  occ. eigenvalues --  -10.28652  -9.58554  -8.80901  -7.33189  -7.32347
 Alpha  occ. eigenvalues --   -7.32298  -6.63016  -6.61936  -6.61919  -2.73408
 Alpha  occ. eigenvalues --   -2.73096  -2.73081  -2.72208  -2.72208  -1.13599
 Alpha  occ. eigenvalues --   -1.04418  -1.03285  -0.97884  -0.90190  -0.85689
 Alpha  occ. eigenvalues --   -0.81914  -0.80287  -0.79569  -0.76323  -0.67581
 Alpha  occ. eigenvalues --   -0.63426  -0.61996  -0.59060  -0.56866  -0.56358
 Alpha  occ. eigenvalues --   -0.55861  -0.55426  -0.53975  -0.51144  -0.49895
 Alpha  occ. eigenvalues --   -0.48550  -0.48452  -0.48001  -0.47172  -0.47042
 Alpha  occ. eigenvalues --   -0.46195  -0.44974  -0.44115  -0.40579  -0.39413
 Alpha  occ. eigenvalues --   -0.38599  -0.36641  -0.34525  -0.32024  -0.26460
 Alpha virt. eigenvalues --    0.04750   0.06813   0.10410   0.11475   0.12372
 Alpha virt. eigenvalues --    0.13896   0.14877   0.15805   0.16456   0.17522
 Alpha virt. eigenvalues --    0.17966   0.18579   0.19046   0.19107   0.19797

 Mulliken charges:
               1
     1  C   -0.292182
     2  C    0.331534
     3  O   -0.573344
     4  C    0.188190
     5  C   -0.298086
     6  H    0.156491
     7  H    0.161492
     8  H    0.149899
     9  N   -0.303475
    10  H    0.274486
    11  H    0.278174
    12  Cl  -0.108159
    13  C   -0.426056
    14  H    0.162940
    15  H    0.150243
    16  H    0.151529
    17  Br  -0.170226
    18  N   -0.103096
    19  C   -0.302046
    20  C   -0.288714
    21  H    0.160912
    22  H    0.139355
    23  H    0.142605
    24  H    0.141194
    25  H    0.139619
    26  H    0.136721
 Sum of Mulliken charges =  -0.00000

 Dipole moment (field-independent basis, Debye):
    X=              2.0853    Y=              2.5814    Z=             -0.9699  Tot=              3.4573
 Quadrupole moment (field-independent basis, Debye-Ang):
   XX=            -73.4678   YY=            -99.0220   ZZ=            -88.6291
   XY=              7.6131   XZ=             -8.1876   YZ=              0.6938

  Exact polarizability: 235.821   8.709 194.702  -9.825  -3.790 159.263
 Approx polarizability: 174.495   5.875 163.996  -6.311  -3.988 138.757

 ******    1 imaginary frequencies (negative Signs) ******

                      1                      2                      3
                      A                      A                      A
 Frequencies --   -384.0012                52.6176                64.0514
 Red. masses --      6.3659                 6.1248                 3.5820
 Frc consts  --      0.5531                 0.0100                 0.0087
 IR Inten    --    934.0578                 0.7782                 9.4998

                      4                      5                      6
                      A                      A                      A
 Frequencies --     92.7480               101.8160               106.3074
 Red. masses --      2.9479                 1.3755                 2.9378
 Frc consts  --      0.0149                 0.0084                 0.0196
 IR Inten    --      1.8551                 1.9671                10.3228

                      7                      8                      9
                      A                      A                      A
 Frequencies --    124.3644               156.5401               163.1980
 Red. masses --      1.9804                 2.4837                 1.8933
 Frc consts  --      0.0180                 0.0359                 0.0297
 IR Inten    --     18.5085                 2.5663                 9.3032

                     10                     11                     12
                      A                      A                      A
 Frequencies --    165.7892               196.6448               208.7742
 Red. masses --      4.6832                 1.7989                 2.1542
 Frc consts  --      0.0758                 0.0410                 0.0553
 IR Inten    --      1.5358                 3.3349                 6.9290

                     13                     14                     15
                      A                      A                      A
 Frequencies --    253.4900               256.8663               278.7858
 Red. masses --      1.9897                 2.2956                 2.3683
 Frc consts  --      0.0753                 0.0892                 0.1085
 IR Inten    --     12.0811                 8.6318                43.4215

                     16                     17                     18
                      A                      A                      A
 Frequencies --    291.0203               308.1432               342.3732
 Red. masses --      2.1912                 2.9724                 4.4433
 Frc consts  --      0.1093                 0.1663                 0.3069
 IR Inten    --      0.6757                20.5157                 0.6901

                     19                     20                     21
                      A                      A                      A
 Frequencies --    369.2138               394.4351               456.9671
 Red. masses --      3.0057                 3.7428                 3.2395
 Frc consts  --      0.2414                 0.3431                 0.3986
 IR Inten    --     20.8364                13.8785                33.6042

                     22                     23                     24
                      A                      A                      A
 Frequencies --    494.6218               538.0558               655.4925
 Red. masses --      4.6211                 5.7881                 6.4847
 Frc consts  --      0.6661                 0.9873                 1.6416
 IR Inten    --    117.3365                19.7107                28.4618

                     25                     26                     27
                      A                      A                      A
 Frequencies --    701.8702               748.7497               780.7364
 Red. masses --      2.3293                 1.8262                 6.9696
 Frc consts  --      0.6761                 0.6032                 2.5030
 IR Inten    --     34.8981                38.5467                83.3368

                     28                     29                     30
                      A                      A                      A
 Frequencies --    900.5942               991.1273              1041.2976
 Red. masses --      4.7628                 2.7299                 1.2173
 Frc consts  --      2.2760                 1.5800                 0.7777
 IR Inten    --     12.2393               113.3325                10.5595

                     31                     32                     33
                      A                      A                      A
 Frequencies --   1048.9037              1060.9832              1072.1996
 Red. masses --      2.0567                 1.4737                 1.4065
 Frc consts  --      1.3332                 0.9774                 0.9527
 IR Inten    --      9.6843                43.7756               163.4303

                     34                     35                     36
                      A                      A                      A
 Frequencies --   1086.7632              1107.3192              1131.5384
 Red. masses --      1.3760                 2.1919                 1.2308
 Frc consts  --      0.9575                 1.5835                 0.9285
 IR Inten    --     21.6022               167.3451                 0.1717

                     37                     38                     39
                      A                      A                      A
 Frequencies --   1146.1563              1170.9067              1217.2114
 Red. masses --      2.4241                 1.4084                 2.5661
 Frc consts  --      1.8762                 1.1377                 2.2401
 IR Inten    --     70.2856                 3.0297               270.6236

                     40                     41                     42
                      A                      A                      A
 Frequencies --   1235.6770              1316.7911              1351.9131
 Red. masses --      1.5141                 5.3348                 1.2814
 Frc consts  --      1.3621                 5.4500                 1.3798
 IR Inten    --     70.4826                48.3674                 5.2538

                     43                     44                     45
                      A                      A                      A
 Frequencies --   1381.3293              1415.8265              1435.2719
 Red. masses --      3.2968                 1.4240                 1.6744
 Frc consts  --      3.7062                 1.6818                 2.0322
 IR Inten    --    745.7715               170.2458               109.0410

                     46                     47                     48
                      A                      A                      A
 Frequencies --   1442.9031              1460.5773              1470.3517
 Red. masses --      1.2814                 1.1988                 1.2275
 Frc consts  --      1.5719                 1.5067                 1.5635
 IR Inten    --     41.9759                 9.6850                57.4722

                     49                     50                     51
                      A                      A                      A
 Frequencies --   1481.8211              1486.9948              1488.0321
 Red. masses --      1.0752                 1.0658                 1.0606
 Frc consts  --      1.3910                 1.3886                 1.3836
 IR Inten    --     11.3884                14.4797                37.9625

                     52                     53                     54
                      A                      A                      A
 Frequencies --   1493.1886              1498.8760              1500.3574
 Red. masses --      1.0483                 1.0564                 1.0562
 Frc consts  --      1.3771                 1.3983                 1.4009
 IR Inten    --     11.4374                16.8924                27.3043

                     55                     56                     57
                      A                      A                      A
 Frequencies --   1509.8214              1533.1681              1616.5662
 Red. masses --      1.0403                 1.7086                 5.5657
 Frc consts  --      1.3972                 2.3663                 8.5695
 IR Inten    --     16.0905               221.6444               718.8107

                     58                     59                     60
                      A                      A                      A
 Frequencies --   1659.7382              3033.3415              3040.1979
 Red. masses --      1.0873                 1.0431                 1.0389
 Frc consts  --      1.7647                 5.6551                 5.6578
 IR Inten    --     47.5957                72.0035               115.9551

                     61                     62                     63
                      A                      A                      A
 Frequencies --   3067.2075              3084.9791              3095.3267
 Red. masses --      1.0353                 1.0361                 1.1030
 Frc consts  --      5.7387                 5.8099                 6.2265
 IR Inten    --     52.3353                17.1385                65.0115

                     64                     65                     66
                      A                      A                      A
 Frequencies --   3105.6287              3143.1818              3160.4152
 Red. masses --      1.0968                 1.1031                 1.1027
 Frc consts  --      6.2326                 6.4213                 6.4894
 IR Inten    --     23.9387                15.2465                13.7427

                     67                     68                     69
                      A                      A                      A
 Frequencies --   3173.1025              3173.1823              3174.0575
 Red. masses --      1.1048                 1.0989                 1.1001
 Frc consts  --      6.5538                 6.5194                 6.5298
 IR Inten    --     16.0724                 8.5923                10.0244

                     70                     71                     72
                      A                      A                      A
 Frequencies --   3188.9457              3427.3835              3573.7421
 Red. masses --      1.1029                 1.0633                 1.0860
 Frc consts  --      6.6080                 7.3591                 8.1722
 IR Inten    --      1.5148               137.5168                61.8961

 - Thermochemistry -
 -------------------
 Temperature   298.150 Kelvin.  Pressure   1.00000 Atm.
 Atom     1 has atomic number  6 and mass  12.00000

 Molecular mass:   255.99780 amu.
 Principal axes and moments of inertia in atomic units:
                           1         2         3
     Eigenvalues --  2371.798333794.728855007.55760
           X            0.99950   0.01662  -0.02691
           Y           -0.01748   0.99933  -0.03208
           Z            0.02636   0.03253   0.99912
 This molecule is an asymmetric top.
 Rotational symmetry number  1.
 Warning -- assumption of classical behavior for rotation
           may cause significant error
 Rotational temperatures (Kelvin)      0.03652     0.02282     0.01730
 Rotational constants (GHZ):           0.76092     0.47559     0.36040
    1 imaginary frequencies ignored.
 Zero-point vibrational energy     559245.6 (Joules/Mol)
                                  133.66292 (Kcal/Mol)
 Warning -- explicit consideration of  22 degrees of freedom as
           vibrations may cause significant error
 Vibrational temperatures:     75.70    92.16   133.44   146.49   152.95
          (Kelvin)            178.93   225.23   234.81   238.53   282.93
                              300.38   364.72   369.57   401.11   418.71
                              443.35   492.60   531.22   567.50   657.47
                              711.65   774.14   943.11  1009.83  1077.28
                             1123.31  1295.75  1426.01  1498.20  1509.14
                             1526.52  1542.66  1563.61  1593.19  1628.03
                             1649.06  1684.67  1751.30  1777.86  1894.57
                             1945.10  1987.42  2037.06  2065.04  2076.02
                             2101.44  2115.51  2132.01  2139.45  2140.95
                             2148.37  2156.55  2158.68  2172.30  2205.89
                             2325.88  2387.99  4364.30  4374.17  4413.03
                             4438.60  4453.48  4468.31  4522.34  4547.13
                             4565.39  4565.50  4566.76  4588.18  4931.24
                             5141.82

 Zero-point correction=                           0.213005 (Hartree/Particle)
 Thermal correction to Energy=                    0.228182
 Thermal correction to Enthalpy=                  0.229126
 Thermal correction to Gibbs Free Energy=         0.170081
 Sum of electronic and zero-point Energies=          -3494.108311
 Sum of electronic and thermal Energies=             -3494.093135
 Sum of electronic and thermal Enthalpies=           -3494.092190
 Sum of electronic and thermal Free Energies=        -3494.151235

                     E (Thermal)             CV                S
                      KCal/Mol        Cal/Mol-Kelvin    Cal/Mol-Kelvin
 Total                  143.186             52.497            124.271
 Electronic               0.000              0.000              0.000
 Translational            0.889              2.981             42.520
 Rotational               0.889              2.981             32.177
 Vibrational            141.409             46.535             49.573
 Vibration     1          0.596              1.977              4.717
 Vibration     2          0.597              1.971              4.328
 Vibration     3          0.602              1.954              3.601
 Vibration     4          0.604              1.948              3.419
 Vibration     5          0.605              1.944              3.335
 Vibration     6          0.610              1.929              3.031
 Vibration     7          0.620              1.895              2.591
 Vibration     8          0.623              1.888              2.512
 Vibration     9          0.624              1.885              2.483
 Vibration    10          0.636              1.845              2.164
 Vibration    11          0.642              1.827              2.054
 Vibration    12          0.665              1.757              1.706
 Vibration    13          0.666              1.751              1.683
 Vibration    14          0.679              1.713              1.541
 Vibration    15          0.687              1.690              1.468
 Vibration    16          0.698              1.658              1.372
 Vibration    17          0.722              1.591              1.201
 Vibration    18          0.742              1.535              1.083
 Vibration    19          0.761              1.482              0.983
 Vibration    20          0.815              1.345              0.775
 Vibration    21          0.850              1.262              0.672
 Vibration    22          0.893              1.166              0.569

 Optimization completed.
    -- Stationary point found.
 Normal termination of Gaussian 16 at Sun Feb 28 15:45:26 2021.
