 Gaussian 16, Revision A.03,
 Gaussian 16:  ES64L-G16RevA.03 25-Dec-2016

 ----------------------------------------------------------------------
 # wB97XD def2tzvp, opt=(ts, noeigen, calcfc, maxcycles=70, maxstep=8),
  freq=noraman, scrf=(iefpcm, solvent=water)
 ----------------------------------------------------------------------

 ------------------------
 1_iteration/TS-961-1.out
 ------------------------
 Symbolic Z-matrix:
 Charge =  0 Multiplicity = 1

 SCF Done:  E(RwB97XD) =  -1438.04970747     A.U. after   14 cycles
 Optimization completed.
    -- Stationary point found.
 Normal termination of Gaussian 16 at Sun Feb 28 15:25:58 2021.

 ---------------------------------------------------------------------
 #N Geom=AllCheck Guess=TCheck SCRF=Check GenChk RwB97XD/def2TZVP Freq
 ---------------------------------------------------------------------

 Structure from the checkpoint file:  "/beegfs/scratch/user/q/tla25/Gau-99976.chk"
 ------------------------
 1_iteration/TS-961-1.out
 ------------------------
 Charge =  0 Multiplicity = 1

                         Standard orientation:
 ---------------------------------------------------------------------
 Center     Atomic      Atomic             Coordinates (Angstroms)
 Number     Number       Type             X           Y           Z
 ---------------------------------------------------------------------
      1          6           0       -0.227830    0.568282   -0.464180
      2          6           0       -0.525009    1.903932   -0.874190
      3          8           0        0.307571    2.792362   -1.041230
      4          6           0       -1.227170   -0.369188   -0.239850
      5          6           0       -1.987210    0.873733    2.177250
      6          1           0       -2.986549    1.158013    1.856990
      7          1           0       -1.935150    0.892903    3.264970
      8          1           0       -1.266589    1.589302    1.775810
      9          7           0       -1.667390   -0.445397    1.653220
     10          1           0       -0.826900   -0.825468    2.075370
     11          1           0       -2.418610   -1.112937    1.788900
     12         17           0       -0.809241   -2.082228   -0.391010
     13         17           0       -2.847010   -0.077277   -0.856300
     14          6           0        1.190730    0.218931   -0.170080
     15          6           0        2.029020   -0.258479   -1.174850
     16          6           0        3.353500   -0.567970   -0.906700
     17          6           0        3.862310   -0.402650    0.374610
     18          6           0        3.040750    0.080340    1.381900
     19          6           0        1.716200    0.392061    1.107740
     20          1           0        1.632600   -0.391619   -2.174160
     21          1           0        3.990580   -0.939910   -1.699440
     22          1           0        4.896060   -0.645990    0.585270
     23          1           0        3.430570    0.219340    2.382480
     24          1           0        1.087970    0.788271    1.897220
     25          1           0       -1.588299    2.124603   -1.061780
 ---------------------------------------------------------------------

 SCF Done:  E(RwB97XD) =  -1438.04970747     A.U. after    1 cycles

 The electronic state is 1-A.
 Alpha  occ. eigenvalues -- -101.71844-101.71424 -19.21747 -14.49788 -10.45854
 Alpha  occ. eigenvalues --  -10.35500 -10.32302 -10.30356 -10.29139 -10.29076
 Alpha  occ. eigenvalues --  -10.29042 -10.28974 -10.28885 -10.28292  -9.60428
 Alpha  occ. eigenvalues --   -9.60012  -7.35105  -7.34681  -7.34184  -7.34162
 Alpha  occ. eigenvalues --   -7.33780  -7.33743  -1.12086  -1.06215  -1.01329
 Alpha  occ. eigenvalues --   -0.96814  -0.94169  -0.89297  -0.85141  -0.83010
 Alpha  occ. eigenvalues --   -0.79770  -0.72337  -0.70804  -0.70488  -0.64886
 Alpha  occ. eigenvalues --   -0.63803  -0.60200  -0.58965  -0.58662  -0.56865
 Alpha  occ. eigenvalues --   -0.55728  -0.54369  -0.53582  -0.50979  -0.50529
 Alpha  occ. eigenvalues --   -0.49681  -0.48807  -0.48773  -0.46530  -0.46422
 Alpha  occ. eigenvalues --   -0.44199  -0.42956  -0.42565  -0.42182  -0.40272
 Alpha  occ. eigenvalues --   -0.39343  -0.33842  -0.33408  -0.32903  -0.29708
 Alpha virt. eigenvalues --    0.02230   0.04331   0.05137   0.06624   0.09656
 Alpha virt. eigenvalues --    0.10529   0.13137   0.13696   0.14469   0.15118
 Alpha virt. eigenvalues --    0.15944   0.17536   0.17552   0.18218   0.19283

 Mulliken charges:
               1
     1  C   -0.242641
     2  C    0.130343
     3  O   -0.483710
     4  C    0.181207
     5  C   -0.317488
     6  H    0.167982
     7  H    0.171361
     8  H    0.162827
     9  N   -0.334714
    10  H    0.291661
    11  H    0.300084
    12  Cl  -0.052194
    13  Cl  -0.046698
    14  C    0.200045
    15  C   -0.236754
    16  C   -0.140745
    17  C   -0.135464
    18  C   -0.168307
    19  C   -0.261468
    20  H    0.139311
    21  H    0.141920
    22  H    0.144384
    23  H    0.141577
    24  H    0.162944
    25  H    0.084536
 Sum of Mulliken charges =  -0.00000

 Dipole moment (field-independent basis, Debye):
    X=             -4.2754    Y=             -5.2252    Z=              7.1831  Tot=              9.8580
 Quadrupole moment (field-independent basis, Debye-Ang):
   XX=            -82.9926   YY=           -113.1115   ZZ=            -83.1430
   XY=             -6.2239   XZ=             -7.0166   YZ=              5.6886

  Exact polarizability: 246.006   1.165 201.357  -6.601  -5.799 210.652
 Approx polarizability: 194.984   0.331 172.186  -3.389  -3.329 180.089

 ******    1 imaginary frequencies (negative Signs) ******

                      1                      2                      3
                      A                      A                      A
 Frequencies --   -344.9330                36.5646                55.9695
 Red. masses --      5.8896                 4.0536                 5.7078
 Frc consts  --      0.4129                 0.0032                 0.0105
 IR Inten    --    819.1869                 1.4846                 2.6875

                      4                      5                      6
                      A                      A                      A
 Frequencies --     73.1128                97.0181               117.4450
 Red. masses --      6.5927                 3.8952                 2.5514
 Frc consts  --      0.0208                 0.0216                 0.0207
 IR Inten    --      4.0304                 0.9134                 4.6102

                      7                      8                      9
                      A                      A                      A
 Frequencies --    150.4871               179.0773               191.3634
 Red. masses --      1.3079                 4.7528                 8.6227
 Frc consts  --      0.0175                 0.0898                 0.1860
 IR Inten    --      0.1914                 1.6938                11.5204

                     10                     11                     12
                      A                      A                      A
 Frequencies --    214.4695               244.3132               253.5421
 Red. masses --      2.9956                 4.8125                 4.6466
 Frc consts  --      0.0812                 0.1692                 0.1760
 IR Inten    --      8.9235                13.7033                 4.2368

                     13                     14                     15
                      A                      A                      A
 Frequencies --    255.7216               315.1204               327.4913
 Red. masses --      3.7021                 5.3956                 7.5393
 Frc consts  --      0.1426                 0.3157                 0.4764
 IR Inten    --     16.4832                38.8948                 3.0402

                     16                     17                     18
                      A                      A                      A
 Frequencies --    385.2253               423.7977               456.9648
 Red. masses --      6.8092                 2.9028                 7.3773
 Frc consts  --      0.5954                 0.3072                 0.9076
 IR Inten    --      9.7420                 0.1649                33.0465

                     19                     20                     21
                      A                      A                      A
 Frequencies --    505.2187               567.6060               599.9604
 Red. masses --      4.2111                 5.4787                 3.6978
 Frc consts  --      0.6333                 1.0400                 0.7842
 IR Inten    --      5.3060                52.8545                93.4756

                     22                     23                     24
                      A                      A                      A
 Frequencies --    642.9786               666.2527               727.5275
 Red. masses --      4.0944                 2.1085                 3.2748
 Frc consts  --      0.9973                 0.5514                 1.0213
 IR Inten    --      7.2303                28.0147                16.7261

                     25                     26                     27
                      A                      A                      A
 Frequencies --    734.1197               790.8836               840.4373
 Red. masses --      1.6035                 2.8632                 6.7460
 Frc consts  --      0.5092                 1.0552                 2.8074
 IR Inten    --    233.1690                43.4765               177.9802

                     28                     29                     30
                      A                      A                      A
 Frequencies --    859.4926               882.5980               963.8864
 Red. masses --      3.9874                 1.2467                 1.4839
 Frc consts  --      1.7355                 0.5722                 0.8123
 IR Inten    --    145.6850                 0.1903                10.8874

                     31                     32                     33
                      A                      A                      A
 Frequencies --   1004.5766              1014.1382              1027.0132
 Red. masses --      1.0953                 1.3801                 5.5907
 Frc consts  --      0.6512                 0.8363                 3.4743
 IR Inten    --     26.6065                 0.5898                 2.0629

                     34                     35                     36
                      A                      A                      A
 Frequencies --   1030.5542              1030.9463              1043.5382
 Red. masses --      1.4021                 1.5553                 1.1400
 Frc consts  --      0.8774                 0.9739                 0.7314
 IR Inten    --      1.6032                 1.1436               104.8758

                     37                     38                     39
                      A                      A                      A
 Frequencies --   1060.6684              1084.0661              1112.6506
 Red. masses --      2.3382                 5.0127                 1.5702
 Frc consts  --      1.5499                 3.4708                 1.1453
 IR Inten    --      4.2450                32.1022                19.0512

                     40                     41                     42
                      A                      A                      A
 Frequencies --   1154.6867              1183.4832              1210.5441
 Red. masses --      3.3542                 1.1360                 1.1244
 Frc consts  --      2.6349                 0.9374                 0.9708
 IR Inten    --     44.6616                 0.0583                 0.1719

                     43                     44                     45
                      A                      A                      A
 Frequencies --   1216.6478              1311.2748              1331.8577
 Red. masses --      1.3972                 4.6262                 4.3811
 Frc consts  --      1.2185                 4.6867                 4.5788
 IR Inten    --     24.8516                 1.7538              1052.8381

                     46                     47                     48
                      A                      A                      A
 Frequencies --   1338.4684              1360.9706              1415.9718
 Red. masses --      1.3353                 1.4328                 3.8131
 Frc consts  --      1.4094                 1.5637                 4.5044
 IR Inten    --      9.6821                 5.1320               373.4572

                     49                     50                     51
                      A                      A                      A
 Frequencies --   1459.0750              1487.9944              1490.3176
 Red. masses --      1.1860                 2.1523                 1.1805
 Frc consts  --      1.4876                 2.8077                 1.5448
 IR Inten    --      6.2295                 7.2494                64.0644

                     52                     53                     54
                      A                      A                      A
 Frequencies --   1494.7494              1501.8753              1548.9317
 Red. masses --      1.3394                 1.0469                 2.5108
 Frc consts  --      1.7632                 1.3913                 3.5491
 IR Inten    --     37.2295                21.8887                46.7863

                     55                     56                     57
                      A                      A                      A
 Frequencies --   1638.8986              1648.1552              1668.9995
 Red. masses --      1.0995                 5.5029                 6.5922
 Frc consts  --      1.7400                 8.8071                10.8191
 IR Inten    --     74.1668                 5.0622               351.3120

                     58                     59                     60
                      A                      A                      A
 Frequencies --   1682.2724              2991.1954              3064.7903
 Red. masses --      6.5405                 1.0824                 1.0359
 Frc consts  --     10.9057                 5.7061                 5.7330
 IR Inten    --    534.3122               103.2942                21.8932

                     61                     62                     63
                      A                      A                      A
 Frequencies --   3140.9256              3176.4197              3189.1534
 Red. masses --      1.1015                 1.1051                 1.0864
 Frc consts  --      6.4025                 6.5693                 6.5103
 IR Inten    --      7.8714                 7.7332                 9.2721

                     64                     65                     66
                      A                      A                      A
 Frequencies --   3193.2858              3202.3482              3210.2411
 Red. masses --      1.0877                 1.0913                 1.0952
 Frc consts  --      6.5349                 6.5935                 6.6500
 IR Inten    --      1.4954                13.6522                43.0309

                     67                     68                     69
                      A                      A                      A
 Frequencies --   3220.5785              3515.9375              3601.7465
 Red. masses --      1.0989                 1.0510                 1.0968
 Frc consts  --      6.7153                 7.6546                 8.3833
 IR Inten    --     17.0266                66.0249                77.0574

 - Thermochemistry -
 -------------------
 Temperature   298.150 Kelvin.  Pressure   1.00000 Atm.
 Atom     1 has atomic number  6 and mass  12.00000

 Molecular mass:   231.02177 amu.
 Principal axes and moments of inertia in atomic units:
                           1         2         3
     Eigenvalues --  2228.266204595.731604937.51082
           X            0.99948  -0.02056  -0.02466
           Y            0.02201   0.99798   0.05966
           Z            0.02339  -0.06017   0.99791
 This molecule is an asymmetric top.
 Rotational symmetry number  1.
 Warning -- assumption of classical behavior for rotation
           may cause significant error
 Rotational temperatures (Kelvin)      0.03887     0.01885     0.01754
 Rotational constants (GHZ):           0.80993     0.39270     0.36552
    1 imaginary frequencies ignored.
 Zero-point vibrational energy     506131.6 (Joules/Mol)
                                  120.96835 (Kcal/Mol)
 Warning -- explicit consideration of  20 degrees of freedom as
           vibrations may cause significant error
 Vibrational temperatures:     52.61    80.53   105.19   139.59   168.98
          (Kelvin)            216.52   257.65   275.33   308.57   351.51
                              364.79   367.93   453.39   471.19   554.25
                              609.75   657.47   726.90   816.66   863.21
                              925.10   958.59  1046.75  1056.23  1137.91
                             1209.20  1236.62  1269.86  1386.82  1445.36
                             1459.12  1477.64  1482.74  1483.30  1501.42
                             1526.07  1559.73  1600.86  1661.34  1702.77
                             1741.70  1750.48  1886.63  1916.25  1925.76
                             1958.13  2037.27  2099.28  2140.89  2144.23
                             2150.61  2160.86  2228.57  2358.01  2371.33
                             2401.32  2420.41  4303.66  4409.55  4519.09
                             4570.16  4588.48  4594.43  4607.46  4618.82
                             4633.69  5058.65  5182.11

 Zero-point correction=                           0.192775 (Hartree/Particle)
 Thermal correction to Energy=                    0.206757
 Thermal correction to Enthalpy=                  0.207701
 Thermal correction to Gibbs Free Energy=         0.150824
 Sum of electronic and zero-point Energies=          -1437.856932
 Sum of electronic and thermal Energies=             -1437.842950
 Sum of electronic and thermal Enthalpies=           -1437.842006
 Sum of electronic and thermal Free Energies=        -1437.898884

                     E (Thermal)             CV                S
                      KCal/Mol        Cal/Mol-Kelvin    Cal/Mol-Kelvin
 Total                  129.742             50.611            119.709
 Electronic               0.000              0.000              0.000
 Translational            0.889              2.981             42.214
 Rotational               0.889              2.981             32.292
 Vibrational            127.965             44.650             45.203
 Vibration     1          0.594              1.982              5.437
 Vibration     2          0.596              1.975              4.594
 Vibration     3          0.599              1.967              4.068
 Vibration     4          0.603              1.951              3.513
 Vibration     5          0.608              1.935              3.142
 Vibration     6          0.618              1.902              2.666
 Vibration     7          0.629              1.868              2.338
 Vibration     8          0.634              1.852              2.215
 Vibration     9          0.644              1.819              2.005
 Vibration    10          0.660              1.772              1.771
 Vibration    11          0.665              1.757              1.706
 Vibration    12          0.666              1.753              1.691
 Vibration    13          0.702              1.645              1.335
 Vibration    14          0.711              1.621              1.272
 Vibration    15          0.754              1.502              1.019
 Vibration    16          0.786              1.418              0.879
 Vibration    17          0.815              1.345              0.775
 Vibration    18          0.860              1.238              0.645
 Vibration    19          0.924              1.101              0.509
 Vibration    20          0.958              1.032              0.450

 Optimization completed.
    -- Stationary point found.
 Normal termination of Gaussian 16 at Sun Feb 28 16:10:37 2021.
