 Gaussian 16, Revision A.03,
 Gaussian 16:  ES64L-G16RevA.03 25-Dec-2016

 ----------------------------------------------------------------------
 # wB97XD def2tzvp, opt=(ts, noeigen, calcfc, maxcycles=70, maxstep=8),
  freq=noraman, scrf=(iefpcm, solvent=water)
 ----------------------------------------------------------------------

 ------------------------
 1_iteration/TS-933-1.out
 ------------------------
 Symbolic Z-matrix:
 Charge =  0 Multiplicity = 1

 SCF Done:  E(RwB97XD) =  -3415.69237306     A.U. after   15 cycles
 SCF Done:  E(RwB97XD) =  -3415.69237303     A.U. after    7 cycles
 Optimization completed.
    -- Stationary point found.
 Normal termination of Gaussian 16 at Fri Apr 16 07:51:46 2021.

 ---------------------------------------------------------------------
 #N Geom=AllCheck Guess=TCheck SCRF=Check GenChk RwB97XD/def2TZVP Freq
 ---------------------------------------------------------------------

 Structure from the checkpoint file:  "/beegfs/scratch/user/q/tla25/Gau-173102.chk"
 ------------------------
 1_iteration/TS-933-1.out
 ------------------------
 Charge =  0 Multiplicity = 1

                         Standard orientation:
 ---------------------------------------------------------------------
 Center     Atomic      Atomic             Coordinates (Angstroms)
 Number     Number       Type             X           Y           Z
 ---------------------------------------------------------------------
      1          6           0       -0.422531    0.824012   -0.940540
      2          6           0       -1.826785    0.591764   -0.653166
      3          8           0       -2.700663    1.261878   -1.216665
      4          6           0        0.689543    0.315704   -0.316952
      5          6           0        0.668174    2.319357    1.587395
      6          1           0        0.452239    2.615939    2.612422
      7          1           0        1.578222    2.808344    1.249248
      8          1           0       -0.161727    2.612930    0.942665
      9          7           0        0.828027    0.874101    1.485622
     10          1           0        1.704895    0.546946    1.877111
     11          1           0        0.069767    0.389064    1.953845
     12         17           0        2.226319    0.900563   -0.936096
     13         35           0        0.853628   -1.627279    0.076983
     14          1           0       -0.248382    1.640372   -1.625851
     15          7           0       -2.178833   -0.331841    0.286909
     16          6           0       -3.568531   -0.653089    0.524396
     17          1           0       -1.504143   -1.034139    0.536757
     18          1           0       -4.124208    0.245722    0.788451
     19          1           0       -4.045000   -1.102793   -0.351194
     20          1           0       -3.624340   -1.354537    1.354568
 ---------------------------------------------------------------------

 SCF Done:  E(RwB97XD) =  -3415.69237303     A.U. after    1 cycles

 The electronic state is 1-A.
 Alpha  occ. eigenvalues -- -483.14041-101.71442 -62.68896 -56.48007 -56.47658
 Alpha  occ. eigenvalues --  -56.47646 -19.19971 -14.50418 -14.44672 -10.44750
 Alpha  occ. eigenvalues --  -10.37911 -10.32195 -10.30588 -10.26373  -9.60017
 Alpha  occ. eigenvalues --   -8.83002  -7.34693  -7.33775  -7.33753  -6.65136
 Alpha  occ. eigenvalues --   -6.64034  -6.63997  -2.75517  -2.75215  -2.75185
 Alpha  occ. eigenvalues --   -2.74294  -2.74293  -1.12728  -1.06085  -1.01304
 Alpha  occ. eigenvalues --   -0.99215  -0.89713  -0.85429  -0.79738  -0.79118
 Alpha  occ. eigenvalues --   -0.69716  -0.66439  -0.64718  -0.60134  -0.58620
 Alpha  occ. eigenvalues --   -0.56747  -0.55513  -0.53562  -0.53081  -0.50426
 Alpha  occ. eigenvalues --   -0.48828  -0.48313  -0.47307  -0.46321  -0.45578
 Alpha  occ. eigenvalues --   -0.41907  -0.40835  -0.38250  -0.38062  -0.34324
 Alpha  occ. eigenvalues --   -0.33406  -0.28676
 Alpha virt. eigenvalues --    0.02219   0.05284   0.08253   0.10144   0.13376
 Alpha virt. eigenvalues --    0.14060   0.15500   0.16257   0.17088   0.17901
 Alpha virt. eigenvalues --    0.19191   0.20138   0.20226   0.21456   0.22121

 Mulliken charges:
               1
     1  C   -0.492475
     2  C    0.362497
     3  O   -0.549074
     4  C    0.173795
     5  C   -0.286313
     6  H    0.165745
     7  H    0.161157
     8  H    0.157861
     9  N   -0.303310
    10  H    0.301469
    11  H    0.285915
    12  Cl  -0.065739
    13  Br  -0.115708
    14  H    0.150347
    15  N   -0.319868
    16  C   -0.256785
    17  H    0.235277
    18  H    0.131246
    19  H    0.124339
    20  H    0.139625
 Sum of Mulliken charges =  -0.00000

 Dipole moment (field-independent basis, Debye):
    X=              4.6346    Y=             -0.8736    Z=              8.5370  Tot=              9.7531
 Quadrupole moment (field-independent basis, Debye-Ang):
   XX=            -88.6707   YY=            -78.0731   ZZ=            -76.2212
   XY=             13.7415   XZ=             -5.5714   YZ=              7.3689

  Exact polarizability: 188.073  -2.376 164.579  10.567  -8.197 145.797
 Approx polarizability: 145.985  -3.566 136.018   7.841  -9.610 125.715

 ******    1 imaginary frequencies (negative Signs) ******

                      1                      2                      3
                      A                      A                      A
 Frequencies --   -403.3986                50.3624                64.9055
 Red. masses --      5.1628                 3.7061                 4.1893
 Frc consts  --      0.4950                 0.0055                 0.0104
 IR Inten    --    564.1035                 4.0141                12.4507

                      4                      5                      6
                      A                      A                      A
 Frequencies --     92.1575               116.7628               128.0303
 Red. masses --      1.8686                 4.5518                 1.2441
 Frc consts  --      0.0094                 0.0366                 0.0120
 IR Inten    --      5.8285                 5.1784                 3.8976

                      7                      8                      9
                      A                      A                      A
 Frequencies --    154.6571               163.0304               181.7441
 Red. masses --      2.1967                 3.0225                 1.9144
 Frc consts  --      0.0310                 0.0473                 0.0373
 IR Inten    --      9.9077                 0.7180                 9.1671

                     10                     11                     12
                      A                      A                      A
 Frequencies --    211.7429               240.4599               269.4845
 Red. masses --     14.8599                 4.1808                 5.2940
 Frc consts  --      0.3925                 0.1424                 0.2265
 IR Inten    --      7.5951                13.1049                22.7228

                     13                     14                     15
                      A                      A                      A
 Frequencies --    296.2813               328.8025               349.0477
 Red. masses --      4.2007                 4.1790                 8.1138
 Frc consts  --      0.2173                 0.2662                 0.5824
 IR Inten    --     11.7171                34.4347                22.4068

                     16                     17                     18
                      A                      A                      A
 Frequencies --    476.1572               508.8468               558.2012
 Red. masses --      1.6195                 2.0253                 2.6674
 Frc consts  --      0.2163                 0.3090                 0.4897
 IR Inten    --     55.5799               136.5882               174.9773

                     19                     20                     21
                      A                      A                      A
 Frequencies --    663.3764               675.3564               718.2615
 Red. masses --      1.6385                 2.9347                 2.3576
 Frc consts  --      0.4248                 0.7886                 0.7166
 IR Inten    --     55.6071                40.1183                66.8441

                     22                     23                     24
                      A                      A                      A
 Frequencies --    795.8722               860.5916               911.1868
 Red. masses --      6.2814                 4.0705                 2.9311
 Frc consts  --      2.3442                 1.7762                 1.4338
 IR Inten    --     90.4443               143.0042                16.9464

                     25                     26                     27
                      A                      A                      A
 Frequencies --   1019.0508              1062.7810              1078.5678
 Red. masses --      1.0962                 1.1443                 4.8486
 Frc consts  --      0.6707                 0.7615                 3.3232
 IR Inten    --     25.8013                68.2999                73.2249

                     28                     29                     30
                      A                      A                      A
 Frequencies --   1140.7915              1153.1071              1186.3817
 Red. masses --      2.4248                 1.5715                 1.8251
 Frc consts  --      1.8592                 1.2312                 1.5135
 IR Inten    --     26.5748                11.6180                27.1424

                     31                     32                     33
                      A                      A                      A
 Frequencies --   1232.7294              1251.1565              1315.3387
 Red. masses --      1.3797                 1.3443                 2.5126
 Frc consts  --      1.2353                 1.2399                 2.5612
 IR Inten    --     47.8471               402.9365               386.1081

                     34                     35                     36
                      A                      A                      A
 Frequencies --   1344.9287              1446.6182              1456.4910
 Red. masses --      1.3091                 1.5062                 1.2007
 Frc consts  --      1.3951                 1.8572                 1.5008
 IR Inten    --      1.3145               246.4258                17.8967

                     37                     38                     39
                      A                      A                      A
 Frequencies --   1472.5494              1477.9742              1494.0866
 Red. masses --      1.9644                 1.1466                 1.0587
 Frc consts  --      2.5097                 1.4757                 1.3924
 IR Inten    --    412.8713                67.4004                10.6437

                     40                     41                     42
                      A                      A                      A
 Frequencies --   1498.4894              1503.3978              1562.4781
 Red. masses --      1.0405                 1.0888                 1.8260
 Frc consts  --      1.3766                 1.4499                 2.6265
 IR Inten    --     11.0344                33.6969               432.8649

                     43                     44                     45
                      A                      A                      A
 Frequencies --   1635.1727              1658.7466              3041.6584
 Red. masses --      1.1128                 5.9357                 1.0436
 Frc consts  --      1.7531                 9.6225                 5.6886
 IR Inten    --    143.6775               887.9933                86.1941

                     46                     47                     48
                      A                      A                      A
 Frequencies --   3071.0981              3117.1249              3150.8616
 Red. masses --      1.0343                 1.0933                 1.1030
 Frc consts  --      5.7477                 6.2588                 6.4518
 IR Inten    --     29.7409                38.4237                 3.6703

                     49                     50                     51
                      A                      A                      A
 Frequencies --   3159.0012              3179.5229              3227.7036
 Red. masses --      1.1040                 1.1059                 1.0882
 Frc consts  --      6.4912                 6.5872                 6.6798
 IR Inten    --     21.7725                 7.9887                 1.5178

                     52                     53                     54
                      A                      A                      A
 Frequencies --   3514.8333              3600.1454              3642.9885
 Red. masses --      1.0504                 1.0972                 1.0773
 Frc consts  --      7.6458                 8.3788                 8.4239
 IR Inten    --     52.5593                74.5157               107.5766

 - Thermochemistry -
 -------------------
 Temperature   298.150 Kelvin.  Pressure   1.00000 Atm.
 Atom     1 has atomic number  6 and mass  12.00000

 Molecular mass:   227.96650 amu.
 Principal axes and moments of inertia in atomic units:
                           1         2         3
     Eigenvalues --  1938.100693011.443453817.49814
           X            0.99675   0.08052   0.00247
           Y           -0.08053   0.99514   0.05664
           Z            0.00211  -0.05665   0.99839
 This molecule is an asymmetric top.
 Rotational symmetry number  1.
 Warning -- assumption of classical behavior for rotation
           may cause significant error
 Rotational temperatures (Kelvin)      0.04469     0.02876     0.02269
 Rotational constants (GHZ):           0.93119     0.59929     0.47275
    1 imaginary frequencies ignored.
 Zero-point vibrational energy     409787.3 (Joules/Mol)
                                   97.94153 (Kcal/Mol)
 Warning -- explicit consideration of  17 degrees of freedom as
           vibrations may cause significant error
 Vibrational temperatures:     72.46    93.38   132.59   168.00   184.21
          (Kelvin)            222.52   234.56   261.49   304.65   345.97
                              387.73   426.28   473.07   502.20   685.08
                              732.12   803.13   954.45   971.69  1033.42
                             1145.08  1238.20  1310.99  1466.19  1529.10
                             1551.82  1641.34  1659.06  1706.94  1773.62
                             1800.14  1892.48  1935.05  2081.36  2095.57
                             2118.67  2126.48  2149.66  2155.99  2163.05
                             2248.06  2352.65  2386.57  4376.27  4418.63
                             4484.85  4533.39  4545.10  4574.62  4643.95
                             5057.06  5179.81  5241.45

 Zero-point correction=                           0.156080 (Hartree/Particle)
 Thermal correction to Energy=                    0.168646
 Thermal correction to Enthalpy=                  0.169590
 Thermal correction to Gibbs Free Energy=         0.115800
 Sum of electronic and zero-point Energies=          -3415.536293
 Sum of electronic and thermal Energies=             -3415.523727
 Sum of electronic and thermal Enthalpies=           -3415.522783
 Sum of electronic and thermal Free Energies=        -3415.576573

                     E (Thermal)             CV                S
                      KCal/Mol        Cal/Mol-Kelvin    Cal/Mol-Kelvin
 Total                  105.827             42.518            113.210
 Electronic               0.000              0.000              0.000
 Translational            0.889              2.981             42.174
 Rotational               0.889              2.981             31.477
 Vibrational            104.050             36.557             39.559
 Vibration     1          0.595              1.977              4.803
 Vibration     2          0.597              1.971              4.302
 Vibration     3          0.602              1.955              3.614
 Vibration     4          0.608              1.935              3.153
 Vibration     5          0.611              1.925              2.975
 Vibration     6          0.620              1.897              2.614
 Vibration     7          0.623              1.888              2.514
 Vibration     8          0.630              1.865              2.310
 Vibration     9          0.643              1.823              2.029
 Vibration    10          0.658              1.778              1.799
 Vibration    11          0.674              1.729              1.600
 Vibration    12          0.690              1.681              1.438
 Vibration    13          0.712              1.618              1.266
 Vibration    14          0.726              1.577              1.170
 Vibration    15          0.833              1.303              0.721
 Vibration    16          0.864              1.230              0.636
 Vibration    17          0.914              1.122              0.527

 Optimization completed.
    -- Stationary point found.
 Normal termination of Gaussian 16 at Fri Apr 16 08:02:05 2021.
