 Gaussian 16, Revision A.03,
 Gaussian 16:  ES64L-G16RevA.03 25-Dec-2016

 ----------------------------------------------------------------------
 # wB97XD def2tzvp, opt=(ts, noeigen, calcfc, maxcycles=70, maxstep=1),
  freq=noraman, scrf=(iefpcm, solvent=water)
 ----------------------------------------------------------------------

 ------------------------
 0_iteration/TS-985-0.out
 ------------------------
 Symbolic Z-matrix:
 Charge =  0 Multiplicity = 1

 SCF Done:  E(RwB97XD) =  -3780.60581809     A.U. after   15 cycles
 SCF Done:  E(RwB97XD) =  -3780.60576434     A.U. after   10 cycles
 SCF Done:  E(RwB97XD) =  -3780.60571342     A.U. after   10 cycles
 SCF Done:  E(RwB97XD) =  -3780.60566532     A.U. after   10 cycles
 SCF Done:  E(RwB97XD) =  -3780.60562010     A.U. after   10 cycles
 SCF Done:  E(RwB97XD) =  -3780.60557777     A.U. after   10 cycles
 SCF Done:  E(RwB97XD) =  -3780.60553835     A.U. after   10 cycles
 SCF Done:  E(RwB97XD) =  -3780.60550185     A.U. after   10 cycles
 SCF Done:  E(RwB97XD) =  -3780.60546830     A.U. after   10 cycles
 SCF Done:  E(RwB97XD) =  -3780.60543773     A.U. after   10 cycles
 SCF Done:  E(RwB97XD) =  -3780.60885164     A.U. after   10 cycles
 SCF Done:  E(RwB97XD) =  -3780.60888353     A.U. after   10 cycles
 SCF Done:  E(RwB97XD) =  -3780.60891049     A.U. after   10 cycles
 SCF Done:  E(RwB97XD) =  -3780.60892785     A.U. after   10 cycles
 SCF Done:  E(RwB97XD) =  -3780.60893567     A.U. after   10 cycles
 SCF Done:  E(RwB97XD) =  -3780.60893613     A.U. after    9 cycles
 SCF Done:  E(RwB97XD) =  -3780.60893628     A.U. after    9 cycles
 SCF Done:  E(RwB97XD) =  -3780.60893409     A.U. after   10 cycles
 SCF Done:  E(RwB97XD) =  -3780.60893625     A.U. after   10 cycles
 Optimization completed.
    -- Stationary point found.
 Normal termination of Gaussian 16 at Sat Feb 27 22:04:11 2021.

 ---------------------------------------------------------------------
 #N Geom=AllCheck Guess=TCheck SCRF=Check GenChk RwB97XD/def2TZVP Freq
 ---------------------------------------------------------------------

 Structure from the checkpoint file:  "/beegfs/scratch/user/q/tla25/Gau-39725.chk"
 ------------------------
 0_iteration/TS-985-0.out
 ------------------------
 Charge =  0 Multiplicity = 1

                         Standard orientation:
 ---------------------------------------------------------------------
 Center     Atomic      Atomic             Coordinates (Angstroms)
 Number     Number       Type             X           Y           Z
 ---------------------------------------------------------------------
      1          6           0        0.373370    0.414030   -0.386022
      2          6           0        0.581993    1.797689   -0.690762
      3          8           0        1.657838    2.375710   -0.681687
      4          6           0       -0.867416   -0.193138   -0.314461
      5          6           0       -1.231003    1.092154    2.216083
      6          1           0       -1.876047    1.828704    1.739635
      7          1           0       -1.431137    1.081676    3.287545
      8          1           0       -0.190051    1.373983    2.056078
      9          7           0       -1.462111   -0.209955    1.613572
     10          1           0       -0.909786   -0.935337    2.056374
     11          1           0       -2.436660   -0.486625    1.642691
     12         17           0       -1.016450   -1.920075   -0.562770
     13         17           0       -2.243165    0.658583   -0.975913
     14         35           0        1.897726   -0.570325    0.158614
     15          1           0       -0.332868    2.343948   -0.966737
 ---------------------------------------------------------------------

 SCF Done:  E(RwB97XD) =  -3780.60893625     A.U. after    1 cycles

 The electronic state is 1-A.
 Alpha  occ. eigenvalues -- -483.13481-101.72635-101.72189 -62.68311 -56.47432
 Alpha  occ. eigenvalues --  -56.47074 -56.47061 -19.23129 -14.48855 -10.46595
 Alpha  occ. eigenvalues --  -10.36971 -10.33317 -10.32081  -9.61203  -9.60766
 Alpha  occ. eigenvalues --   -8.82426  -7.35898  -7.35455  -7.34951  -7.34927
 Alpha  occ. eigenvalues --   -7.34524  -7.34484  -6.64593  -6.63441  -6.63404
 Alpha  occ. eigenvalues --   -2.74983  -2.74647  -2.74618  -2.73686  -2.73686
 Alpha  occ. eigenvalues --   -1.13717  -1.05932  -1.01970  -0.95093  -0.92530
 Alpha  occ. eigenvalues --   -0.83411  -0.79335  -0.73734  -0.64194  -0.63048
 Alpha  occ. eigenvalues --   -0.60203  -0.58665  -0.57097  -0.55718  -0.51938
 Alpha  occ. eigenvalues --   -0.49590  -0.48920  -0.48166  -0.47679  -0.44418
 Alpha  occ. eigenvalues --   -0.42929  -0.41411  -0.40322  -0.38938  -0.37233
 Alpha  occ. eigenvalues --   -0.34312  -0.30082
 Alpha virt. eigenvalues --    0.00534   0.04754   0.05810   0.10640   0.12092
 Alpha virt. eigenvalues --    0.13118   0.14788   0.15491   0.17859   0.18187
 Alpha virt. eigenvalues --    0.19931   0.22042   0.22792   0.23580   0.25856

 Mulliken charges:
               1
     1  C   -0.165950
     2  C    0.092370
     3  O   -0.446551
     4  C    0.160344
     5  C   -0.310916
     6  H    0.161174
     7  H    0.166894
     8  H    0.164517
     9  N   -0.378441
    10  H    0.290286
    11  H    0.297127
    12  Cl  -0.024366
    13  Cl  -0.024947
    14  Br  -0.090524
    15  H    0.108983
 Sum of Mulliken charges =  -0.00000

 Dipole moment (field-independent basis, Debye):
    X=             -7.7229    Y=             -2.7530    Z=              5.5389  Tot=              9.8945
 Quadrupole moment (field-independent basis, Debye-Ang):
   XX=            -80.7735   YY=            -85.5291   ZZ=            -70.2176
   XY=             -9.2071   XZ=             -4.1651   YZ=              1.1875

  Exact polarizability: 179.518  11.363 157.056  -7.841 -11.087 130.312
 Approx polarizability: 146.977   7.848 135.093  -3.144  -9.172 111.785

 ******    1 imaginary frequencies (negative Signs) ******

                      1                      2                      3
                      A                      A                      A
 Frequencies --   -353.6119                51.3963                61.1786
 Red. masses --      5.7735                 5.5078                 2.4362
 Frc consts  --      0.4253                 0.0086                 0.0054
 IR Inten    --    809.9705                 1.2079                 0.7914

                      4                      5                      6
                      A                      A                      A
 Frequencies --    104.4647               142.5510               160.5077
 Red. masses --      3.0436                 1.7653                21.1067
 Frc consts  --      0.0196                 0.0211                 0.3204
 IR Inten    --      7.3703                 0.5419                 1.9143

                      7                      8                      9
                      A                      A                      A
 Frequencies --    192.8112               199.0857               237.7463
 Red. masses --      2.9971                 7.9564                 4.0151
 Frc consts  --      0.0656                 0.1858                 0.1337
 IR Inten    --      2.8295                14.7101                16.4612

                     10                     11                     12
                      A                      A                      A
 Frequencies --    249.9138               299.4940               324.1745
 Red. masses --      6.7536                 5.9595                 7.4043
 Frc consts  --      0.2485                 0.3149                 0.4584
 IR Inten    --      3.1247                22.1465                 2.7835

                     13                     14                     15
                      A                      A                      A
 Frequencies --    333.6018               429.8208               528.3645
 Red. masses --      3.7200                14.0520                 5.9071
 Frc consts  --      0.2439                 1.5295                 0.9716
 IR Inten    --      7.0393                 3.3992               146.0899

                     16                     17                     18
                      A                      A                      A
 Frequencies --    607.3750               628.6460               793.2764
 Red. masses --      4.4428                 1.6111                 7.0829
 Frc consts  --      0.9657                 0.3751                 2.6261
 IR Inten    --     67.9985                17.1227               220.3697

                     19                     20                     21
                      A                      A                      A
 Frequencies --    863.6716               993.5514              1009.0992
 Red. masses --      7.7906                 1.0801                 1.1332
 Frc consts  --      3.4239                 0.6282                 0.6799
 IR Inten    --    151.6751                42.3567                90.4585

                     22                     23                     24
                      A                      A                      A
 Frequencies --   1019.8571              1087.6446              1204.5391
 Red. masses --      1.6666                 4.7503                 1.4976
 Frc consts  --      1.0213                 3.3109                 1.2802
 IR Inten    --      8.3077                20.0942                18.0936

                     25                     26                     27
                      A                      A                      A
 Frequencies --   1212.9447              1340.9775              1384.5863
 Red. masses --      4.6696                 1.3360                 2.5754
 Frc consts  --      4.0477                 1.4154                 2.9089
 IR Inten    --    302.5763                 1.6330               828.4456

                     28                     29                     30
                      A                      A                      A
 Frequencies --   1453.4967              1471.9579              1491.4411
 Red. masses --      1.3104                 1.6877                 1.0412
 Frc consts  --      1.6311                 2.1545                 1.3646
 IR Inten    --    136.3852               269.3900                24.7485

                     31                     32                     33
                      A                      A                      A
 Frequencies --   1503.3370              1643.4048              1700.1555
 Red. masses --      1.0325                 1.0915                 9.5623
 Frc consts  --      1.3748                 1.7368                16.2850
 IR Inten    --     17.7288                62.0898               840.4250

                     34                     35                     36
                      A                      A                      A
 Frequencies --   3006.6160              3067.7161              3144.7469
 Red. masses --      1.0837                 1.0328                 1.1045
 Frc consts  --      5.7721                 5.7267                 6.4357
 IR Inten    --     59.8998                21.5460                 9.5456

                     37                     38                     39
                      A                      A                      A
 Frequencies --   3161.0243              3525.3798              3611.9000
 Red. masses --      1.1056                 1.0502                 1.0970
 Frc consts  --      6.5086                 7.6900                 8.4322
 IR Inten    --     10.8306                81.4012                59.5473

 - Thermochemistry -
 -------------------
 Temperature   298.150 Kelvin.  Pressure   1.00000 Atm.
 Atom     1 has atomic number  6 and mass  12.00000

 Molecular mass:   232.90098 amu.
 Principal axes and moments of inertia in atomic units:
                           1         2         3
     Eigenvalues --  1826.212342847.352523370.22038
           X            0.99879   0.01728  -0.04603
           Y           -0.01565   0.99925   0.03549
           Z            0.04661  -0.03473   0.99831
 This molecule is an asymmetric top.
 Rotational symmetry number  1.
 Warning -- assumption of classical behavior for rotation
           may cause significant error
 Rotational temperatures (Kelvin)      0.04743     0.03042     0.02570
 Rotational constants (GHZ):           0.98824     0.63383     0.53550
    1 imaginary frequencies ignored.
 Zero-point vibrational energy     264628.7 (Joules/Mol)
                                   63.24777 (Kcal/Mol)
 Warning -- explicit consideration of  15 degrees of freedom as
           vibrations may cause significant error
 Vibrational temperatures:     73.95    88.02   150.30   205.10   230.93
          (Kelvin)            277.41   286.44   342.06   359.57   430.91
                              466.41   479.98   618.42   760.20   873.88
                              904.48  1141.35  1242.63  1429.50  1451.87
                             1467.35  1564.88  1733.06  1745.16  1929.37
                             1992.11  2091.26  2117.82  2145.85  2162.97
                             2364.49  2446.14  4325.85  4413.76  4524.59
                             4548.01  5072.24  5196.72

 Zero-point correction=                           0.100792 (Hartree/Particle)
 Thermal correction to Energy=                    0.111730
 Thermal correction to Enthalpy=                  0.112674
 Thermal correction to Gibbs Free Energy=         0.062133
 Sum of electronic and zero-point Energies=          -3780.508145
 Sum of electronic and thermal Energies=             -3780.497206
 Sum of electronic and thermal Enthalpies=           -3780.496262
 Sum of electronic and thermal Free Energies=        -3780.546803

                     E (Thermal)             CV                S
                      KCal/Mol        Cal/Mol-Kelvin    Cal/Mol-Kelvin
 Total                   70.112             36.041            106.373
 Electronic               0.000              0.000              0.000
 Translational            0.889              2.981             42.238
 Rotational               0.889              2.981             31.239
 Vibrational             68.334             30.079             32.896
 Vibration     1          0.596              1.977              4.763
 Vibration     2          0.597              1.973              4.419
 Vibration     3          0.605              1.946              3.369
 Vibration     4          0.616              1.911              2.769
 Vibration     5          0.622              1.891              2.544
 Vibration     6          0.635              1.850              2.201
 Vibration     7          0.637              1.841              2.142
 Vibration     8          0.656              1.783              1.820
 Vibration     9          0.663              1.763              1.731
 Vibration    10          0.692              1.675              1.420
 Vibration    11          0.709              1.627              1.289
 Vibration    12          0.715              1.608              1.243
 Vibration    13          0.791              1.405              0.859
 Vibration    14          0.883              1.187              0.591
 Vibration    15          0.966              1.016              0.437

 Optimization completed.
    -- Stationary point found.
 Normal termination of Gaussian 16 at Sat Feb 27 22:13:53 2021.
