 Gaussian 16, Revision A.03,
 Gaussian 16:  ES64L-G16RevA.03 25-Dec-2016

 ----------------------------------------------------------------------
 # wB97XD def2tzvp, opt=(ts, noeigen, calcfc, maxcycles=70, maxstep=1),
  freq=noraman, scrf=(iefpcm, solvent=water)
 ----------------------------------------------------------------------

 ------------------------
 0_iteration/TS-929-0.out
 ------------------------
 Symbolic Z-matrix:
 Charge =  0 Multiplicity = 1

 SCF Done:  E(RwB97XD) =  -3320.99741544     A.U. after   15 cycles
 SCF Done:  E(RwB97XD) =  -3320.99739401     A.U. after   10 cycles
 SCF Done:  E(RwB97XD) =  -3320.99737547     A.U. after   10 cycles
 SCF Done:  E(RwB97XD) =  -3320.99735987     A.U. after   10 cycles
 SCF Done:  E(RwB97XD) =  -3320.99734732     A.U. after   10 cycles
 SCF Done:  E(RwB97XD) =  -3320.99733806     A.U. after   10 cycles
 SCF Done:  E(RwB97XD) =  -3320.99733282     A.U. after   10 cycles
 SCF Done:  E(RwB97XD) =  -3320.99733399     A.U. after   10 cycles
 SCF Done:  E(RwB97XD) =  -3320.99735017     A.U. after   10 cycles
 SCF Done:  E(RwB97XD) =  -3320.99738868     A.U. after   10 cycles
 SCF Done:  E(RwB97XD) =  -3320.99986634     A.U. after   10 cycles
 SCF Done:  E(RwB97XD) =  -3320.99989878     A.U. after   10 cycles
 SCF Done:  E(RwB97XD) =  -3320.99991930     A.U. after   10 cycles
 SCF Done:  E(RwB97XD) =  -3320.99993074     A.U. after   10 cycles
 SCF Done:  E(RwB97XD) =  -3320.99993629     A.U. after   10 cycles
 SCF Done:  E(RwB97XD) =  -3320.99993694     A.U. after   10 cycles
 SCF Done:  E(RwB97XD) =  -3320.99993653     A.U. after    9 cycles
 SCF Done:  E(RwB97XD) =  -3320.99993658     A.U. after    8 cycles
 SCF Done:  E(RwB97XD) =  -3320.99993689     A.U. after    9 cycles
 Optimization completed.
    -- Stationary point found.
 Normal termination of Gaussian 16 at Sat Feb 27 20:55:45 2021.

 ---------------------------------------------------------------------
 #N Geom=AllCheck Guess=TCheck SCRF=Check GenChk RwB97XD/def2TZVP Freq
 ---------------------------------------------------------------------

 Structure from the checkpoint file:  "/beegfs/scratch/user/q/tla25/Gau-46616.chk"
 ------------------------
 0_iteration/TS-929-0.out
 ------------------------
 Charge =  0 Multiplicity = 1

                         Standard orientation:
 ---------------------------------------------------------------------
 Center     Atomic      Atomic             Coordinates (Angstroms)
 Number     Number       Type             X           Y           Z
 ---------------------------------------------------------------------
      1          6           0       -1.186354    0.602565   -0.706260
      2          6           0       -2.235055   -0.316216   -0.428629
      3          8           0       -3.418089   -0.134646   -0.707848
      4          6           0        0.132963    0.438533   -0.343302
      5          6           0       -0.520325    0.818895    2.392373
      6          1           0       -0.366768   -0.229904    2.638698
      7          1           0       -0.463329    1.415090    3.302523
      8          1           0       -1.509080    0.943981    1.949321
      9          7           0        0.476196    1.237439    1.419427
     10          1           0        0.419711    2.232514    1.232717
     11          1           0        1.422519    1.021652    1.713579
     12         17           0        1.315815    1.409381   -1.215154
     13         35           0        0.810847   -1.327728    0.033712
     14          1           0       -1.449983    1.540128   -1.180401
     15          1           0       -1.937619   -1.260045    0.062948
 ---------------------------------------------------------------------

 SCF Done:  E(RwB97XD) =  -3320.99993689     A.U. after    1 cycles

 The electronic state is 1-A.
 Alpha  occ. eigenvalues -- -483.14717-101.71572 -62.69563 -56.48696 -56.48315
 Alpha  occ. eigenvalues --  -56.48306 -19.21787 -14.49369 -10.45068 -10.35612
 Alpha  occ. eigenvalues --  -10.32073 -10.27252  -9.60151  -8.83675  -7.34823
 Alpha  occ. eigenvalues --   -7.33915  -7.33884  -6.65881  -6.64665  -6.64638
 Alpha  occ. eigenvalues --   -2.76259  -2.75910  -2.75889  -2.74907  -2.74906
 Alpha  occ. eigenvalues --   -1.12065  -1.05262  -0.99668  -0.90831  -0.85653
 Alpha  occ. eigenvalues --   -0.79451  -0.71944  -0.64668  -0.63797  -0.58280
 Alpha  occ. eigenvalues --   -0.57830  -0.55485  -0.55085  -0.50255  -0.48818
 Alpha  occ. eigenvalues --   -0.48360  -0.47182  -0.46446  -0.42425  -0.40668
 Alpha  occ. eigenvalues --   -0.38456  -0.38149  -0.33015  -0.30010
 Alpha virt. eigenvalues --    0.01890   0.03757   0.08583   0.10733   0.13054
 Alpha virt. eigenvalues --    0.14444   0.15426   0.17550   0.17837   0.18926
 Alpha virt. eigenvalues --    0.20234   0.22315   0.23039   0.24564   0.25727

 Mulliken charges:
               1
     1  C   -0.368211
     2  C    0.135611
     3  O   -0.483274
     4  C    0.156814
     5  C   -0.306858
     6  H    0.160140
     7  H    0.166993
     8  H    0.160271
     9  N   -0.336217
    10  H    0.288099
    11  H    0.296876
    12  Cl  -0.056890
    13  Br  -0.049399
    14  H    0.148714
    15  H    0.087331
 Sum of Mulliken charges =  -0.00000

 Dipole moment (field-independent basis, Debye):
    X=              6.8549    Y=              3.0466    Z=              6.3996  Tot=              9.8604
 Quadrupole moment (field-independent basis, Debye-Ang):
   XX=            -91.3514   YY=            -59.8136   ZZ=            -60.8858
   XY=              0.7029   XZ=             -3.7171   YZ=              4.6560

  Exact polarizability: 167.270   9.061 128.100  14.475  -2.056 124.065
 Approx polarizability: 134.759   6.188 109.775   9.845  -3.301 102.920

 ******    1 imaginary frequencies (negative Signs) ******

                      1                      2                      3
                      A                      A                      A
 Frequencies --   -348.6076                64.5321                96.3265
 Red. masses --      5.9346                 2.2218                 4.0979
 Frc consts  --      0.4249                 0.0055                 0.0224
 IR Inten    --    792.2545                 0.1134                 3.9377

                      4                      5                      6
                      A                      A                      A
 Frequencies --    145.1515               159.5750               191.0799
 Red. masses --      2.7434                 2.8828                 2.3553
 Frc consts  --      0.0341                 0.0433                 0.0507
 IR Inten    --      6.4132                 3.5780                 1.1076

                      7                      8                      9
                      A                      A                      A
 Frequencies --    203.6643               208.6321               258.7859
 Red. masses --      2.3859                 5.6189                 3.7339
 Frc consts  --      0.0583                 0.1441                 0.1473
 IR Inten    --     15.4491                 1.5803                 2.5643

                     10                     11                     12
                      A                      A                      A
 Frequencies --    302.0776               376.1504               402.7794
 Red. masses --      4.1169                 8.1568                 8.7240
 Frc consts  --      0.2213                 0.6800                 0.8339
 IR Inten    --     24.3196                18.1657                18.5569

                     13                     14                     15
                      A                      A                      A
 Frequencies --    485.0444               603.8670               705.0500
 Red. masses --      4.0789                 2.4434                 1.5816
 Frc consts  --      0.5654                 0.5250                 0.4632
 IR Inten    --     66.9841                13.3349               113.7030

                     16                     17                     18
                      A                      A                      A
 Frequencies --    772.6037               831.5563               993.0198
 Red. masses --      1.4929                 7.2545                 1.0748
 Frc consts  --      0.5250                 2.9556                 0.6245
 IR Inten    --    143.5776               243.2561                31.6553

                     19                     20                     21
                      A                      A                      A
 Frequencies --   1032.1522              1038.6269              1084.9521
 Red. masses --      1.1787                 1.5491                 4.8945
 Frc consts  --      0.7398                 0.9846                 3.3945
 IR Inten    --     70.3028                20.4023                26.1782

                     22                     23                     24
                      A                      A                      A
 Frequencies --   1204.8396              1215.3913              1245.7806
 Red. masses --      2.3765                 1.4295                 1.8622
 Frc consts  --      2.0326                 1.2441                 1.7028
 IR Inten    --    310.8057                27.9104               271.7333

                     25                     26                     27
                      A                      A                      A
 Frequencies --   1340.8490              1400.3385              1452.8849
 Red. masses --      1.3278                 1.7835                 1.1810
 Frc consts  --      1.4065                 2.0605                 1.4688
 IR Inten    --      0.3884               732.8842                 2.5210

                     28                     29                     30
                      A                      A                      A
 Frequencies --   1491.4338              1501.2699              1506.6095
 Red. masses --      1.0399                 1.0585                 2.1819
 Frc consts  --      1.3628                 1.4056                 2.9181
 IR Inten    --     18.5806                30.5360               327.8206

                     31                     32                     33
                      A                      A                      A
 Frequencies --   1639.4816              1683.2435              2958.1367
 Red. masses --      1.0911                 6.8058                 1.0821
 Frc consts  --      1.7280                11.3612                 5.5789
 IR Inten    --     70.4648              1077.4919                95.5715

                     34                     35                     36
                      A                      A                      A
 Frequencies --   3068.4841              3145.5376              3167.1169
 Red. masses --      1.0331                 1.1042                 1.1056
 Frc consts  --      5.7310                 6.4371                 6.5338
 IR Inten    --     22.1557                 6.3742                10.0489

                     37                     38                     39
                      A                      A                      A
 Frequencies --   3198.8497              3516.7429              3604.0821
 Red. masses --      1.0886                 1.0504                 1.0974
 Frc consts  --      6.5629                 7.6539                 8.3985
 IR Inten    --      0.4490                73.2488                59.7976

 - Thermochemistry -
 -------------------
 Temperature   298.150 Kelvin.  Pressure   1.00000 Atm.
 Atom     1 has atomic number  6 and mass  12.00000

 Molecular mass:   198.93995 amu.
 Principal axes and moments of inertia in atomic units:
                           1         2         3
     Eigenvalues --  1610.450252087.853512330.74693
           X            0.99848   0.05494   0.00510
           Y           -0.05501   0.98411   0.16883
           Z            0.00426  -0.16885   0.98563
 This molecule is an asymmetric top.
 Rotational symmetry number  1.
 Warning -- assumption of classical behavior for rotation
           may cause significant error
 Rotational temperatures (Kelvin)      0.05378     0.04148     0.03716
 Rotational constants (GHZ):           1.12064     0.86440     0.77432
    1 imaginary frequencies ignored.
 Zero-point vibrational energy     288878.4 (Joules/Mol)
                                   69.04360 (Kcal/Mol)
 Warning -- explicit consideration of  13 degrees of freedom as
           vibrations may cause significant error
 Vibrational temperatures:     92.85   138.59   208.84   229.59   274.92
          (Kelvin)            293.03   300.18   372.34   434.62   541.20
                              579.51   697.87   868.83  1014.41  1111.60
                             1196.42  1428.73  1485.04  1494.35  1561.00
                             1733.50  1748.68  1792.40  1929.18  2014.77
                             2090.38  2145.84  2159.99  2167.67  2358.85
                             2421.81  4256.10  4414.86  4525.73  4556.77
                             4602.43  5059.81  5185.47

 Zero-point correction=                           0.110028 (Hartree/Particle)
 Thermal correction to Energy=                    0.119772
 Thermal correction to Enthalpy=                  0.120716
 Thermal correction to Gibbs Free Energy=         0.073589
 Sum of electronic and zero-point Energies=          -3320.889909
 Sum of electronic and thermal Energies=             -3320.880165
 Sum of electronic and thermal Enthalpies=           -3320.879220
 Sum of electronic and thermal Free Energies=        -3320.926348

                     E (Thermal)             CV                S
                      KCal/Mol        Cal/Mol-Kelvin    Cal/Mol-Kelvin
 Total                   75.158             32.590             99.188
 Electronic               0.000              0.000              0.000
 Translational            0.889              2.981             41.768
 Rotational               0.889              2.981             30.439
 Vibrational             73.381             26.628             26.980
 Vibration     1          0.597              1.971              4.314
 Vibration     2          0.603              1.952              3.527
 Vibration     3          0.617              1.908              2.735
 Vibration     4          0.621              1.892              2.555
 Vibration     5          0.634              1.852              2.217
 Vibration     6          0.639              1.835              2.100
 Vibration     7          0.642              1.828              2.056
 Vibration     8          0.668              1.748              1.670
 Vibration     9          0.694              1.670              1.405
 Vibration    10          0.747              1.521              1.055
 Vibration    11          0.768              1.464              0.952
 Vibration    12          0.841              1.283              0.697
 Vibration    13          0.962              1.024              0.443

 Optimization completed.
    -- Stationary point found.
 Normal termination of Gaussian 16 at Sat Feb 27 21:04:24 2021.
