 Gaussian 16, Revision A.03,
 Gaussian 16:  ES64L-G16RevA.03 25-Dec-2016

 ----------------------------------------------------------------------
 # wB97XD def2tzvp, opt=(ts, noeigen, calcfc, maxcycles=70, maxstep=8),
  freq=noraman, scrf=(iefpcm, solvent=water)
 ----------------------------------------------------------------------

 ------------------------
 1_iteration/TS-972-1.out
 ------------------------
 Symbolic Z-matrix:
 Charge =  0 Multiplicity = 1

 SCF Done:  E(RwB97XD) =  -1321.55990446     A.U. after   15 cycles
 SCF Done:  E(RwB97XD) =  -1321.55990477     A.U. after    8 cycles
 Optimization completed.
    -- Stationary point found.
 Normal termination of Gaussian 16 at Sun Feb 28 12:49:49 2021.

 ---------------------------------------------------------------------
 #N Geom=AllCheck Guess=TCheck SCRF=Check GenChk RwB97XD/def2TZVP Freq
 ---------------------------------------------------------------------

 Structure from the checkpoint file:  "/beegfs/scratch/user/q/tla25/Gau-34650.chk"
 ------------------------
 1_iteration/TS-972-1.out
 ------------------------
 Charge =  0 Multiplicity = 1

                         Standard orientation:
 ---------------------------------------------------------------------
 Center     Atomic      Atomic             Coordinates (Angstroms)
 Number     Number       Type             X           Y           Z
 ---------------------------------------------------------------------
      1          6           0        0.347345    0.014382    0.830601
      2          6           0        1.578949   -0.102465    0.104747
      3          8           0        1.700419   -0.351126   -1.084831
      4          6           0       -0.868518   -0.271247    0.257118
      5          6           0       -1.066560    2.385285   -0.717848
      6          1           0       -0.888733    3.078685   -1.539541
      7          1           0       -1.959405    2.688482   -0.175819
      8          1           0       -0.209412    2.413305   -0.040277
      9          7           0       -1.223938    1.020147   -1.188930
     10          1           0       -2.123937    0.846724   -1.620195
     11          1           0       -0.488912    0.755949   -1.836661
     12         17           0       -2.270947   -0.000744    1.269782
     13         17           0       -1.088840   -1.702331   -0.763921
     14          1           0        0.358594    0.494114    1.796307
     15          8           0        2.648315    0.139884    0.891988
     16          6           0        3.919484    0.119143    0.252626
     17          1           0        4.645694    0.343238    1.029577
     18          1           0        4.124137   -0.861743   -0.176764
     19          1           0        3.971843    0.871848   -0.534489
 ---------------------------------------------------------------------

 SCF Done:  E(RwB97XD) =  -1321.55990477     A.U. after    1 cycles

 The electronic state is 1-A.
 Alpha  occ. eigenvalues -- -101.71444-101.70756 -19.28756 -19.22307 -14.48450
 Alpha  occ. eigenvalues --  -10.44927 -10.40618 -10.32846 -10.31649 -10.27043
 Alpha  occ. eigenvalues --   -9.60023  -9.59342  -7.34696  -7.34012  -7.33786
 Alpha  occ. eigenvalues --   -7.33756  -7.33106  -7.33075  -1.20229  -1.10857
 Alpha  occ. eigenvalues --   -1.04989  -1.00550  -0.93554  -0.87272  -0.81231
 Alpha  occ. eigenvalues --   -0.78913  -0.70243  -0.64337  -0.63217  -0.60579
 Alpha  occ. eigenvalues --   -0.58221  -0.57495  -0.56814  -0.55064  -0.54362
 Alpha  occ. eigenvalues --   -0.51403  -0.49411  -0.48271  -0.48018  -0.47276
 Alpha  occ. eigenvalues --   -0.44052  -0.42944  -0.41740  -0.39789  -0.38498
 Alpha  occ. eigenvalues --   -0.38403  -0.35967  -0.29742
 Alpha virt. eigenvalues --    0.03057   0.06505   0.09685   0.10946   0.13676
 Alpha virt. eigenvalues --    0.14675   0.16312   0.16579   0.17271   0.18933
 Alpha virt. eigenvalues --    0.19247   0.20490   0.20629   0.21426   0.23093

 Mulliken charges:
               1
     1  C   -0.543390
     2  C    0.456358
     3  O   -0.492806
     4  C    0.246009
     5  C   -0.281976
     6  H    0.157195
     7  H    0.155663
     8  H    0.147524
     9  N   -0.362665
    10  H    0.290929
    11  H    0.283647
    12  Cl  -0.063496
    13  Cl  -0.068827
    14  H    0.166605
    15  O   -0.302271
    16  C   -0.187060
    17  H    0.140891
    18  H    0.129263
    19  H    0.128406
 Sum of Mulliken charges =  -0.00000

 Dipole moment (field-independent basis, Debye):
    X=             -2.1545    Y=              4.6934    Z=             -1.7595  Tot=              5.4558
 Quadrupole moment (field-independent basis, Debye-Ang):
   XX=            -64.1708   YY=            -69.2380   ZZ=            -72.8091
   XY=             -3.2174   XZ=              6.5669   YZ=             -4.0668

  Exact polarizability: 173.224  -5.456 129.450   4.363   1.067 132.827
 Approx polarizability: 131.484  -3.057 108.712   2.408   3.999 120.171

 ******    1 imaginary frequencies (negative Signs) ******

                      1                      2                      3
                      A                      A                      A
 Frequencies --   -370.0239                52.8873                67.8233
 Red. masses --      5.4399                 3.4209                 5.3096
 Frc consts  --      0.4388                 0.0056                 0.0144
 IR Inten    --    685.7586                 2.5623                22.0712

                      4                      5                      6
                      A                      A                      A
 Frequencies --     91.7207               115.3187               142.5169
 Red. masses --      2.2103                 4.4037                 2.0768
 Frc consts  --      0.0110                 0.0345                 0.0249
 IR Inten    --      5.8287                 1.0935                10.5789

                      7                      8                      9
                      A                      A                      A
 Frequencies --    162.9587               168.7294               179.2696
 Red. masses --      1.3957                 2.8177                 1.6918
 Frc consts  --      0.0218                 0.0473                 0.0320
 IR Inten    --      0.6702                 1.3061                 4.9781

                     10                     11                     12
                      A                      A                      A
 Frequencies --    243.9368               251.4876               290.9887
 Red. masses --      6.3201                 5.8490                 4.0088
 Frc consts  --      0.2216                 0.2180                 0.2000
 IR Inten    --     10.7551                 4.3590                 3.5002

                     13                     14                     15
                      A                      A                      A
 Frequencies --    314.5025               348.4243               404.3865
 Red. masses --      5.9466                 6.9971                 8.6269
 Frc consts  --      0.3466                 0.5005                 0.8312
 IR Inten    --     41.5318                20.9967                20.1962

                     16                     17                     18
                      A                      A                      A
 Frequencies --    478.2082               598.7600               663.3651
 Red. masses --      4.2791                 1.9820                 1.2710
 Frc consts  --      0.5766                 0.4186                 0.3295
 IR Inten    --     59.5226                30.2093                72.7583

                     19                     20                     21
                      A                      A                      A
 Frequencies --    715.3619               717.4176               803.7638
 Red. masses --      3.5528                 3.9355                 8.4746
 Frc consts  --      1.0712                 1.1934                 3.2257
 IR Inten    --    121.4288                50.1683                89.0689

                     22                     23                     24
                      A                      A                      A
 Frequencies --    851.0788               984.6629               987.9850
 Red. masses --      5.6988                 3.5386                 1.1256
 Frc consts  --      2.4320                 2.0214                 0.6473
 IR Inten    --    145.5438               117.7865                52.8863

                     25                     26                     27
                      A                      A                      A
 Frequencies --   1042.6864              1082.4003              1090.9774
 Red. masses --      1.2172                 5.7289                 4.6260
 Frc consts  --      0.7797                 3.9546                 3.2440
 IR Inten    --     89.5971               120.2447                29.8768

                     28                     29                     30
                      A                      A                      A
 Frequencies --   1181.6909              1198.6709              1199.6560
 Red. masses --      1.2833                 1.7853                 1.4723
 Frc consts  --      1.0558                 1.5114                 1.2484
 IR Inten    --      1.8023               707.4549               207.1190

                     31                     32                     33
                      A                      A                      A
 Frequencies --   1217.8196              1319.7457              1342.8576
 Red. masses --      1.5270                 3.0727                 1.3563
 Frc consts  --      1.3343                 3.1531                 1.4410
 IR Inten    --     48.7673               111.7169                18.5723

                     34                     35                     36
                      A                      A                      A
 Frequencies --   1447.0892              1472.3429              1482.2484
 Red. masses --      1.2438                 1.4713                 1.0459
 Frc consts  --      1.5345                 1.8791                 1.3539
 IR Inten    --    159.6176               179.0706                13.6169

                     37                     38                     39
                      A                      A                      A
 Frequencies --   1488.3702              1490.8644              1499.7153
 Red. masses --      1.2388                 1.1197                 1.0445
 Frc consts  --      1.6169                 1.4663                 1.3842
 IR Inten    --    390.0738               139.8073                39.9687

                     40                     41                     42
                      A                      A                      A
 Frequencies --   1502.2955              1639.4059              1710.7562
 Red. masses --      1.5813                 1.1050                 9.7706
 Frc consts  --      2.1026                 1.7497                16.8479
 IR Inten    --    419.7178                95.8817               487.1967

                     43                     44                     45
                      A                      A                      A
 Frequencies --   3052.7451              3062.5238              3128.0690
 Red. masses --      1.0372                 1.0311                 1.1001
 Frc consts  --      5.6949                 5.6979                 6.3422
 IR Inten    --     34.8689                54.1013                10.7531

                     46                     47                     48
                      A                      A                      A
 Frequencies --   3138.1672              3166.5905              3175.4440
 Red. masses --      1.1068                 1.1049                 1.1052
 Frc consts  --      6.4220                 6.5279                 6.5657
 IR Inten    --     36.6161                12.4232                24.5975

                     49                     50                     51
                      A                      A                      A
 Frequencies --   3249.0010              3516.4023              3609.4051
 Red. masses --      1.0904                 1.0511                 1.0968
 Frc consts  --      6.7814                 7.6574                 8.4189
 IR Inten    --      2.4579                44.3926                84.6090

 - Thermochemistry -
 -------------------
 Temperature   298.150 Kelvin.  Pressure   1.00000 Atm.
 Atom     1 has atomic number  6 and mass  12.00000

 Molecular mass:   185.00103 amu.
 Principal axes and moments of inertia in atomic units:
                           1         2         3
     Eigenvalues --  1320.090723069.673843277.19303
           X            0.99963  -0.01699   0.02146
           Y            0.02007   0.98810  -0.15252
           Z           -0.01862   0.15289   0.98807
 This molecule is an asymmetric top.
 Rotational symmetry number  1.
 Warning -- assumption of classical behavior for rotation
           may cause significant error
 Rotational temperatures (Kelvin)      0.06561     0.02822     0.02643
 Rotational constants (GHZ):           1.36713     0.58793     0.55070
    1 imaginary frequencies ignored.
 Zero-point vibrational energy     377682.0 (Joules/Mol)
                                   90.26816 (Kcal/Mol)
 Warning -- explicit consideration of  16 degrees of freedom as
           vibrations may cause significant error
 Vibrational temperatures:     76.09    97.58   131.97   165.92   205.05
          (Kelvin)            234.46   242.76   257.93   350.97   361.83
                              418.67   452.50   501.30   581.82   688.03
                              861.48   954.43  1029.25  1032.20  1156.44
                             1224.51  1416.71  1421.49  1500.19  1557.33
                             1569.67  1700.19  1724.62  1726.04  1752.17
                             1898.82  1932.07  2082.04  2118.37  2132.62
                             2141.43  2145.02  2157.76  2161.47  2358.74
                             2461.40  4392.22  4406.29  4500.59  4515.12
                             4556.02  4568.76  4674.59  5059.32  5193.13

 Zero-point correction=                           0.143851 (Hartree/Particle)
 Thermal correction to Energy=                    0.155906
 Thermal correction to Enthalpy=                  0.156850
 Thermal correction to Gibbs Free Energy=         0.104624
 Sum of electronic and zero-point Energies=          -1321.416053
 Sum of electronic and thermal Energies=             -1321.403999
 Sum of electronic and thermal Enthalpies=           -1321.403054
 Sum of electronic and thermal Free Energies=        -1321.455280

                     E (Thermal)             CV                S
                      KCal/Mol        Cal/Mol-Kelvin    Cal/Mol-Kelvin
 Total                   97.833             40.728            109.918
 Electronic               0.000              0.000              0.000
 Translational            0.889              2.981             41.552
 Rotational               0.889              2.981             30.963
 Vibrational             96.055             34.767             37.403
 Vibration     1          0.596              1.976              4.706
 Vibration     2          0.598              1.970              4.216
 Vibration     3          0.602              1.955              3.623
 Vibration     4          0.608              1.937              3.177
 Vibration     5          0.616              1.911              2.770
 Vibration     6          0.623              1.888              2.515
 Vibration     7          0.625              1.881              2.450
 Vibration     8          0.629              1.868              2.336
 Vibration     9          0.659              1.773              1.774
 Vibration    10          0.663              1.760              1.720
 Vibration    11          0.687              1.691              1.468
 Vibration    12          0.702              1.646              1.339
 Vibration    13          0.726              1.578              1.173
 Vibration    14          0.770              1.461              0.947
 Vibration    15          0.835              1.298              0.715
 Vibration    16          0.957              1.034              0.452

 Optimization completed.
    -- Stationary point found.
 Normal termination of Gaussian 16 at Sun Feb 28 13:01:40 2021.
