 Gaussian 16, Revision A.03,
 Gaussian 16:  ES64L-G16RevA.03 25-Dec-2016

 ----------------------------------------------------------------------
 # wB97XD def2tzvp, opt=(ts, noeigen, calcfc, maxcycles=70, maxstep=1),
  freq=noraman, scrf=(iefpcm, solvent=water)
 ----------------------------------------------------------------------

 ------------------------
 0_iteration/TS-900-0.out
 ------------------------
 Symbolic Z-matrix:
 Charge =  0 Multiplicity = 1

 SCF Done:  E(RwB97XD) =  -940.588392524     A.U. after   14 cycles
 SCF Done:  E(RwB97XD) =  -940.588392236     A.U. after    9 cycles
 SCF Done:  E(RwB97XD) =  -940.588393640     A.U. after    9 cycles
 SCF Done:  E(RwB97XD) =  -940.588399099     A.U. after   10 cycles
 SCF Done:  E(RwB97XD) =  -940.588407670     A.U. after   10 cycles
 SCF Done:  E(RwB97XD) =  -940.588418899     A.U. after   10 cycles
 SCF Done:  E(RwB97XD) =  -940.588436384     A.U. after   10 cycles
 SCF Done:  E(RwB97XD) =  -940.588461410     A.U. after   10 cycles
 SCF Done:  E(RwB97XD) =  -940.588489787     A.U. after   10 cycles
 SCF Done:  E(RwB97XD) =  -940.588518445     A.U. after   10 cycles
 SCF Done:  E(RwB97XD) =  -940.589017828     A.U. after   10 cycles
 SCF Done:  E(RwB97XD) =  -940.589024732     A.U. after   10 cycles
 SCF Done:  E(RwB97XD) =  -940.589031491     A.U. after   10 cycles
 SCF Done:  E(RwB97XD) =  -940.589039313     A.U. after   10 cycles
 SCF Done:  E(RwB97XD) =  -940.589044833     A.U. after   10 cycles
 SCF Done:  E(RwB97XD) =  -940.589047304     A.U. after   10 cycles
 SCF Done:  E(RwB97XD) =  -940.589047522     A.U. after    9 cycles
 SCF Done:  E(RwB97XD) =  -940.589047515     A.U. after    7 cycles
 SCF Done:  E(RwB97XD) =  -940.589047535     A.U. after    7 cycles
 Optimization completed.
    -- Stationary point found.
 Normal termination of Gaussian 16 at Wed Feb 24 06:38:26 2021.

 ---------------------------------------------------------------------
 #N Geom=AllCheck Guess=TCheck SCRF=Check GenChk RwB97XD/def2TZVP Freq
 ---------------------------------------------------------------------

 Structure from the checkpoint file:  "/beegfs/scratch/user/q/tla25/Gau-13355.chk"
 ------------------------
 0_iteration/TS-900-0.out
 ------------------------
 Charge =  0 Multiplicity = 1

                         Standard orientation:
 ---------------------------------------------------------------------
 Center     Atomic      Atomic             Coordinates (Angstroms)
 Number     Number       Type             X           Y           Z
 ---------------------------------------------------------------------
      1          6           0       -0.220135   -0.488651   -0.193372
      2          6           0       -1.467951   -0.005869    0.312861
      3          8           0       -1.690230    0.727464    1.271562
      4          6           0        0.984902   -0.073594    0.379429
      5          6           0        0.999572    2.227889   -1.154955
      6          1           0        1.336488    2.713609   -2.069268
      7          1           0       -0.016645    1.855693   -1.296233
      8          1           0        1.009174    2.946725   -0.339558
      9          7           0        1.849025    1.091897   -0.813570
     10          1           0        2.034516    0.516328   -1.627253
     11          1           0        2.743368    1.377896   -0.429958
     12         17           0        2.321734   -1.322812    0.370672
     13          6           0        1.076507    0.717348    1.653989
     14          1           0        0.473712    1.618310    1.587005
     15          1           0        0.684842    0.121927    2.477516
     16          1           0        2.112604    0.973078    1.869049
     17          6           0       -0.229896   -1.354323   -1.431620
     18          1           0       -0.762274   -2.295899   -1.276199
     19          1           0       -0.714217   -0.851329   -2.272680
     20          1           0        0.783051   -1.607372   -1.742657
     21          8           0       -2.515565   -0.488062   -0.420213
     22          6           0       -3.810101   -0.094517    0.002249
     23          1           0       -4.015158   -0.432651    1.018951
     24          1           0       -3.927928    0.989264   -0.038294
     25          1           0       -4.505211   -0.565976   -0.689133
 ---------------------------------------------------------------------

 SCF Done:  E(RwB97XD) =  -940.589047535     A.U. after    1 cycles

 The electronic state is 1-A.
 Alpha  occ. eigenvalues -- -101.68802 -19.27241 -19.20206 -14.49533 -10.39972
 Alpha  occ. eigenvalues --  -10.38765 -10.32172 -10.31918 -10.28276 -10.26775
 Alpha  occ. eigenvalues --  -10.25866  -9.57420  -7.32010  -7.31228  -7.31192
 Alpha  occ. eigenvalues --   -1.18475  -1.08804  -1.05245  -0.96414  -0.88181
 Alpha  occ. eigenvalues --   -0.84150  -0.80237  -0.79392  -0.74847  -0.68607
 Alpha  occ. eigenvalues --   -0.63861  -0.62439  -0.58779  -0.57072  -0.56272
 Alpha  occ. eigenvalues --   -0.55284  -0.54858  -0.52749  -0.50709  -0.49832
 Alpha  occ. eigenvalues --   -0.49031  -0.48138  -0.46330  -0.46099  -0.45822
 Alpha  occ. eigenvalues --   -0.44922  -0.44033  -0.42328  -0.39242  -0.38705
 Alpha  occ. eigenvalues --   -0.37264  -0.33983  -0.26770
 Alpha virt. eigenvalues --    0.06441   0.08303   0.09941   0.12831   0.13567
 Alpha virt. eigenvalues --    0.15235   0.15747   0.15978   0.16592   0.18425
 Alpha virt. eigenvalues --    0.18770   0.19530   0.20256   0.20679   0.20962

 Mulliken charges:
               1
     1  C   -0.280301
     2  C    0.440732
     3  O   -0.529553
     4  C    0.137871
     5  C   -0.309878
     6  H    0.163009
     7  H    0.158127
     8  H    0.163487
     9  N   -0.287356
    10  H    0.286738
    11  H    0.292554
    12  Cl  -0.163443
    13  C   -0.354348
    14  H    0.147629
    15  H    0.145094
    16  H    0.141320
    17  C   -0.380296
    18  H    0.118695
    19  H    0.116809
    20  H    0.122292
    21  O   -0.307802
    22  C   -0.194619
    23  H    0.120422
    24  H    0.120245
    25  H    0.132572
 Sum of Mulliken charges =  -0.00000

 Dipole moment (field-independent basis, Debye):
    X=              4.7935    Y=              4.1889    Z=             -4.1530  Tot=              7.6008
 Quadrupole moment (field-independent basis, Debye-Ang):
   XX=            -66.0196   YY=            -72.1288   ZZ=            -74.1445
   XY=             10.9232   XZ=             -1.1329   YZ=             -4.9831

  Exact polarizability: 196.740   0.147 148.123  -2.282   2.597 139.545
 Approx polarizability: 148.301  -1.502 124.238  -2.066   3.722 119.347

 ******    1 imaginary frequencies (negative Signs) ******

                      1                      2                      3
                      A                      A                      A
 Frequencies --   -375.7311                41.5769                66.4532
 Red. masses --      5.7120                 2.9529                 3.9101
 Frc consts  --      0.4751                 0.0030                 0.0102
 IR Inten    --    753.6844                 6.3840                 1.0451

                      4                      5                      6
                      A                      A                      A
 Frequencies --     96.2554               110.9509               139.6203
 Red. masses --      1.8717                 1.5128                 2.4107
 Frc consts  --      0.0102                 0.0110                 0.0277
 IR Inten    --      1.7194                 5.5630                 4.6041

                      7                      8                      9
                      A                      A                      A
 Frequencies --    162.4753               175.2799               182.8213
 Red. masses --      1.8496                 2.0553                 1.7089
 Frc consts  --      0.0288                 0.0372                 0.0337
 IR Inten    --      3.0894                 1.6164                 1.7540

                     10                     11                     12
                      A                      A                      A
 Frequencies --    202.6342               223.5541               288.9623
 Red. masses --      1.4914                 3.1910                 2.9878
 Frc consts  --      0.0361                 0.0940                 0.1470
 IR Inten    --      2.3500                16.1280                12.6555

                     13                     14                     15
                      A                      A                      A
 Frequencies --    295.1936               309.1188               338.8588
 Red. masses --      1.8910                 2.7336                 3.8588
 Frc consts  --      0.0971                 0.1539                 0.2611
 IR Inten    --      9.8630                 3.0414                31.7557

                     16                     17                     18
                      A                      A                      A
 Frequencies --    353.5753               364.7089               394.2182
 Red. masses --      2.3169                 4.5532                 2.2506
 Frc consts  --      0.1707                 0.3568                 0.2061
 IR Inten    --      3.7495                 9.9308                25.4157

                     19                     20                     21
                      A                      A                      A
 Frequencies --    471.4426               529.8558               621.1740
 Red. masses --      3.9286                 4.0001                 4.0090
 Frc consts  --      0.5144                 0.6617                 0.9114
 IR Inten    --     64.7729                71.2068                13.5233

                     22                     23                     24
                      A                      A                      A
 Frequencies --    641.4083               727.1610               790.2284
 Red. masses --      2.9570                 1.6473                 7.6106
 Frc consts  --      0.7168                 0.5132                 2.8001
 IR Inten    --    150.3096               105.5832                46.9812

                     25                     26                     27
                      A                      A                      A
 Frequencies --    811.7386               954.8743              1008.1025
 Red. masses --      4.4635                 1.9730                 1.0890
 Frc consts  --      1.7328                 1.0599                 0.6521
 IR Inten    --    178.8743               106.8964                17.1733

                     28                     29                     30
                      A                      A                      A
 Frequencies --   1031.0514              1048.3078              1065.6458
 Red. masses --      1.9339                 1.2892                 1.4523
 Frc consts  --      1.2113                 0.8348                 0.9717
 IR Inten    --    104.1661                12.8534                86.4449

                     31                     32                     33
                      A                      A                      A
 Frequencies --   1069.4062              1083.0455              1105.7101
 Red. masses --      1.5354                 3.4046                 2.5876
 Frc consts  --      1.0346                 2.3529                 1.8639
 IR Inten    --     44.4760                 3.9687               242.4979

                     34                     35                     36
                      A                      A                      A
 Frequencies --   1148.0164              1178.9777              1181.3331
 Red. masses --      3.0913                 3.7141                 1.2930
 Frc consts  --      2.4004                 3.0417                 1.0631
 IR Inten    --    156.4817               198.6789                 4.9707

                     37                     38                     39
                      A                      A                      A
 Frequencies --   1213.5100              1232.3144              1329.4015
 Red. masses --      1.6210                 1.3788                 4.2045
 Frc consts  --      1.4065                 1.2337                 4.3780
 IR Inten    --    203.1882                49.8370               383.2013

                     40                     41                     42
                      A                      A                      A
 Frequencies --   1341.3600              1416.5459              1426.2444
 Red. masses --      1.4516                 1.3920                 1.2224
 Frc consts  --      1.5388                 1.6457                 1.4650
 IR Inten    --     77.9201               245.6799                 3.8345

                     43                     44                     45
                      A                      A                      A
 Frequencies --   1444.0021              1462.0806              1476.4218
 Red. masses --      1.5272                 1.4675                 1.1641
 Frc consts  --      1.8762                 1.8482                 1.4951
 IR Inten    --    229.8620               150.5901                21.6877

                     46                     47                     48
                      A                      A                      A
 Frequencies --   1479.5856              1480.9373              1481.9900
 Red. masses --      1.0685                 1.0460                 1.0510
 Frc consts  --      1.3781                 1.3516                 1.3600
 IR Inten    --     28.0578                 5.7075                30.2791

                     49                     50                     51
                      A                      A                      A
 Frequencies --   1486.6981              1496.7486              1497.6002
 Red. masses --      1.1218                 1.0414                 1.0519
 Frc consts  --      1.4609                 1.3746                 1.3900
 IR Inten    --     13.9375                15.9499                23.3759

                     52                     53                     54
                      A                      A                      A
 Frequencies --   1503.2103              1512.3115              1644.9680
 Red. masses --      1.0408                 1.3209                 1.0868
 Frc consts  --      1.3857                 1.7799                 1.7327
 IR Inten    --     20.4134               365.9681                71.6621

                     55                     56                     57
                      A                      A                      A
 Frequencies --   1691.7004              3039.8264              3055.0712
 Red. masses --     10.2942                 1.0394                 1.0309
 Frc consts  --     17.3577                 5.6586                 5.6690
 IR Inten    --    714.0769                79.5210                73.5258

                     58                     59                     60
                      A                      A                      A
 Frequencies --   3068.4180              3082.7255              3087.7231
 Red. masses --      1.0352                 1.0371                 1.1017
 Frc consts  --      5.7424                 5.8069                 6.1885
 IR Inten    --     32.4855                15.0897                47.3115

                     61                     62                     63
                      A                      A                      A
 Frequencies --   3126.9753              3137.4981              3146.4694
 Red. masses --      1.1061                 1.0974                 1.1027
 Frc consts  --      6.3725                 6.3646                 6.4322
 IR Inten    --     47.5784                28.4241                 5.9490

                     64                     65                     66
                      A                      A                      A
 Frequencies --   3157.4801              3159.8961              3178.0222
 Red. masses --      1.1033                 1.1049                 1.1052
 Frc consts  --      6.4806                 6.5000                 6.5765
 IR Inten    --     16.9638                31.0972                12.1544

                     67                     68                     69
                      A                      A                      A
 Frequencies --   3188.6919              3522.0883              3603.4772
 Red. masses --      1.1007                 1.0508                 1.0964
 Frc consts  --      6.5940                 7.6805                 8.3883
 IR Inten    --      4.4816                54.9130                54.9842

 - Thermochemistry -
 -------------------
 Temperature   298.150 Kelvin.  Pressure   1.00000 Atm.
 Atom     1 has atomic number  6 and mass  12.00000

 Molecular mass:   179.07131 amu.
 Principal axes and moments of inertia in atomic units:
                           1         2         3
     Eigenvalues --  1312.196183029.704863256.40403
           X            0.99926   0.03839  -0.00164
           Y           -0.03832   0.99878   0.03125
           Z            0.00284  -0.03117   0.99951
 This molecule is an asymmetric top.
 Rotational symmetry number  1.
 Warning -- assumption of classical behavior for rotation
           may cause significant error
 Rotational temperatures (Kelvin)      0.06601     0.02859     0.02660
 Rotational constants (GHZ):           1.37536     0.59568     0.55421
    1 imaginary frequencies ignored.
 Zero-point vibrational energy     552589.4 (Joules/Mol)
                                  132.07203 (Kcal/Mol)
 Warning -- explicit consideration of  19 degrees of freedom as
           vibrations may cause significant error
 Vibrational temperatures:     59.82    95.61   138.49   159.63   200.88
          (Kelvin)            233.77   252.19   263.04   291.55   321.64
                              415.75   424.72   444.75   487.54   508.72
                              524.73   567.19   678.30   762.34   893.73
                              922.84  1046.22  1136.96  1167.91  1373.85
                             1450.43  1483.45  1508.28  1533.23  1538.64
                             1558.26  1590.87  1651.74  1696.29  1699.67
                             1745.97  1773.03  1912.71  1929.92  2038.09
                             2052.05  2077.60  2103.61  2124.24  2128.79
                             2130.74  2132.25  2139.03  2153.49  2154.71
                             2162.78  2175.88  2366.74  2433.98  4373.63
                             4395.57  4414.77  4435.35  4442.54  4499.02
                             4514.16  4527.07  4542.91  4546.39  4572.47
                             4587.82  5067.50  5184.60

 Zero-point correction=                           0.210470 (Hartree/Particle)
 Thermal correction to Energy=                    0.224055
 Thermal correction to Enthalpy=                  0.224999
 Thermal correction to Gibbs Free Energy=         0.170221
 Sum of electronic and zero-point Energies=           -940.378577
 Sum of electronic and thermal Energies=              -940.364993
 Sum of electronic and thermal Enthalpies=            -940.364049
 Sum of electronic and thermal Free Energies=         -940.418827

                     E (Thermal)             CV                S
                      KCal/Mol        Cal/Mol-Kelvin    Cal/Mol-Kelvin
 Total                  140.596             47.851            115.291
 Electronic               0.000              0.000              0.000
 Translational            0.889              2.981             41.455
 Rotational               0.889              2.981             30.938
 Vibrational            138.819             41.889             42.898
 Vibration     1          0.594              1.981              5.182
 Vibration     2          0.598              1.970              4.256
 Vibration     3          0.603              1.952              3.529
 Vibration     4          0.607              1.940              3.252
 Vibration     5          0.615              1.914              2.809
 Vibration     6          0.623              1.888              2.521
 Vibration     7          0.627              1.873              2.378
 Vibration     8          0.630              1.863              2.299
 Vibration     9          0.639              1.836              2.109
 Vibration    10          0.649              1.805              1.930
 Vibration    11          0.686              1.694              1.480
 Vibration    12          0.689              1.683              1.444
 Vibration    13          0.698              1.656              1.367
 Vibration    14          0.719              1.598              1.218
 Vibration    15          0.730              1.568              1.150
 Vibration    16          0.738              1.545              1.102
 Vibration    17          0.761              1.483              0.984
 Vibration    18          0.828              1.313              0.734
 Vibration    19          0.885              1.184              0.588

 Optimization completed.
    -- Stationary point found.
 Normal termination of Gaussian 16 at Wed Feb 24 07:04:47 2021.
