 Gaussian 16, Revision A.03,
 Gaussian 16:  ES64L-G16RevA.03 25-Dec-2016

 ----------------------------------------------------------------------
 # wB97XD def2tzvp, opt=(ts, noeigen, calcfc, maxcycles=70, maxstep=5),
  freq=noraman, scrf=(iefpcm, solvent=water)
 ----------------------------------------------------------------------

 ------------------------
 2_iteration/TS-989-2.out
 ------------------------
 Symbolic Z-matrix:
 Charge =  0 Multiplicity = 1

 SCF Done:  E(RwB97XD) =  -3875.29421874     A.U. after   15 cycles
 SCF Done:  E(RwB97XD) =  -3875.29421873     A.U. after    7 cycles
 SCF Done:  E(RwB97XD) =  -3875.29421869     A.U. after    6 cycles
 Optimization completed.
    -- Stationary point found.
 Normal termination of Gaussian 16 at Sun Feb 28 18:47:18 2021.

 ---------------------------------------------------------------------
 #N Geom=AllCheck Guess=TCheck SCRF=Check GenChk RwB97XD/def2TZVP Freq
 ---------------------------------------------------------------------

 Structure from the checkpoint file:  "/beegfs/scratch/user/q/tla25/Gau-99461.chk"
 ------------------------
 2_iteration/TS-989-2.out
 ------------------------
 Charge =  0 Multiplicity = 1

                         Standard orientation:
 ---------------------------------------------------------------------
 Center     Atomic      Atomic             Coordinates (Angstroms)
 Number     Number       Type             X           Y           Z
 ---------------------------------------------------------------------
      1          6           0        0.057380   -0.381052   -0.277755
      2          6           0        1.443848   -0.831860   -0.109179
      3          8           0        1.729883   -2.021647    0.016876
      4          6           0       -0.392876    0.932083   -0.241828
      5          6           0       -0.526478    0.866262    2.523827
      6          1           0       -0.092963   -0.122159    2.377600
      7          1           0       -0.212287    1.256907    3.490471
      8          1           0       -1.611155    0.793675    2.494697
      9          7           0       -0.071803    1.733647    1.442354
     10          1           0       -0.516537    2.645615    1.460304
     11          1           0        0.933590    1.867451    1.482643
     12         17           0       -2.107875    1.242946   -0.391362
     13         17           0        0.479673    2.186342   -1.205287
     14         35           0       -1.208463   -1.801171   -0.172169
     15          7           0        2.427146    0.112312   -0.017897
     16          6           0        3.812002   -0.297985    0.078534
     17          1           0        2.259603    1.017561   -0.418612
     18          1           0        4.426246    0.594353    0.180515
     19          1           0        3.959792   -0.926611    0.955468
     20          1           0        4.139624   -0.856935   -0.801928
 ---------------------------------------------------------------------

 SCF Done:  E(RwB97XD) =  -3875.29421869     A.U. after    1 cycles

 The electronic state is 1-A.
 Alpha  occ. eigenvalues -- -483.12457-101.72114-101.71793 -62.67286 -56.46413
 Alpha  occ. eigenvalues --  -56.46044 -56.46035 -19.20780 -14.50698 -14.45134
 Alpha  occ. eigenvalues --  -10.46597 -10.39048 -10.32494 -10.32153 -10.30764
 Alpha  occ. eigenvalues --   -9.60697  -9.60397  -8.81402  -7.35391  -7.35048
 Alpha  occ. eigenvalues --   -7.34454  -7.34409  -7.34170  -7.34135  -6.63586
 Alpha  occ. eigenvalues --   -6.62403  -6.62379  -2.73970  -2.73625  -2.73606
 Alpha  occ. eigenvalues --   -2.72649  -2.72649  -1.13905  -1.07006  -1.02136
 Alpha  occ. eigenvalues --   -1.01196  -0.94334  -0.91299  -0.83298  -0.80080
 Alpha  occ. eigenvalues --   -0.78984  -0.70403  -0.66783  -0.64925  -0.61198
 Alpha  occ. eigenvalues --   -0.59463  -0.57155  -0.56423  -0.54588  -0.53780
 Alpha  occ. eigenvalues --   -0.51384  -0.49377  -0.49166  -0.47926  -0.47257
 Alpha  occ. eigenvalues --   -0.46419  -0.43794  -0.42675  -0.40849  -0.40266
 Alpha  occ. eigenvalues --   -0.39496  -0.37035  -0.34667  -0.33737  -0.28203
 Alpha virt. eigenvalues --    0.02573   0.04988   0.05554   0.10088   0.12874
 Alpha virt. eigenvalues --    0.13454   0.14216   0.15617   0.16152   0.17310
 Alpha virt. eigenvalues --    0.17776   0.19414   0.20221   0.20969   0.21402

 Mulliken charges:
               1
     1  C   -0.258223
     2  C    0.318624
     3  O   -0.510120
     4  C    0.128145
     5  C   -0.298704
     6  H    0.165633
     7  H    0.169745
     8  H    0.163333
     9  N   -0.304548
    10  H    0.301733
    11  H    0.287362
    12  Cl  -0.027525
    13  Cl  -0.080523
    14  Br  -0.111110
    15  N   -0.330018
    16  C   -0.253785
    17  H    0.238864
    18  H    0.141325
    19  H    0.133479
    20  H    0.126315
 Sum of Mulliken charges =  -0.00000

 Dipole moment (field-independent basis, Debye):
    X=              0.8571    Y=              9.9357    Z=              5.0850  Tot=             11.1942
 Quadrupole moment (field-independent basis, Debye-Ang):
   XX=            -86.1022   YY=            -95.3016   ZZ=            -83.3697
   XY=              7.8466   XZ=             -2.2027   YZ=              7.6718

  Exact polarizability: 188.344  -1.949 200.296  -4.144   2.598 147.377
 Approx polarizability: 152.943   1.031 167.543  -2.355   0.386 127.420

 ******    1 imaginary frequencies (negative Signs) ******

                      1                      2                      3
                      A                      A                      A
 Frequencies --   -375.9215                32.1411                65.0087
 Red. masses --      5.6319                 6.0967                 2.3902
 Frc consts  --      0.4689                 0.0037                 0.0060
 IR Inten    --    630.2432                13.7638                 6.3266

                      4                      5                      6
                      A                      A                      A
 Frequencies --     74.4071               100.3803               138.2532
 Red. masses --      4.2318                 3.3306                 2.2542
 Frc consts  --      0.0138                 0.0198                 0.0254
 IR Inten    --      4.1528                 6.3841                 8.9874

                      7                      8                      9
                      A                      A                      A
 Frequencies --    158.6336               168.2915               176.0543
 Red. masses --      1.5507                 2.0755                 3.3684
 Frc consts  --      0.0230                 0.0346                 0.0615
 IR Inten    --      3.5128                 0.1356                11.9818

                     10                     11                     12
                      A                      A                      A
 Frequencies --    179.1520               202.2868               251.7900
 Red. masses --     10.9549                 2.3344                 4.1904
 Frc consts  --      0.2072                 0.0563                 0.1565
 IR Inten    --      0.4952                13.3039                 1.8820

                     13                     14                     15
                      A                      A                      A
 Frequencies --    270.1119               290.0877               303.7909
 Red. masses --     12.4821                 7.1922                 4.8770
 Frc consts  --      0.5366                 0.3566                 0.2652
 IR Inten    --      7.0893                11.6480                 2.1629

                     16                     17                     18
                      A                      A                      A
 Frequencies --    326.3154               366.8315               418.9031
 Red. masses --      5.2905                 6.5407                10.9252
 Frc consts  --      0.3319                 0.5186                 1.1296
 IR Inten    --     32.3380                30.6933                24.0442

                     19                     20                     21
                      A                      A                      A
 Frequencies --    515.6350               534.1707               663.0501
 Red. masses --      1.5868                 3.4536                 1.8297
 Frc consts  --      0.2486                 0.5806                 0.4739
 IR Inten    --     38.5002               283.1925                17.8898

                     22                     23                     24
                      A                      A                      A
 Frequencies --    732.6018               758.0211               777.1182
 Red. masses --      6.7695                 2.9248                 9.2531
 Frc consts  --      2.1406                 0.9902                 3.2924
 IR Inten    --    261.9334                65.9512                50.7924

                     25                     26                     27
                      A                      A                      A
 Frequencies --    887.6107               958.3918              1019.4953
 Red. masses --      4.6524                 3.6710                 1.1165
 Frc consts  --      2.1596                 1.9867                 0.6837
 IR Inten    --     55.3451                 2.2430                19.6940

                     28                     29                     30
                      A                      A                      A
 Frequencies --   1062.4015              1083.7932              1144.7557
 Red. masses --      1.2903                 3.3941                 2.0747
 Frc consts  --      0.8581                 2.3489                 1.6019
 IR Inten    --     31.4853                78.7480                 4.7935

                     31                     32                     33
                      A                      A                      A
 Frequencies --   1156.7229              1183.9121              1239.8708
 Red. masses --      1.9094                 1.8101                 1.4016
 Frc consts  --      1.5052                 1.4948                 1.2695
 IR Inten    --      3.9317                81.0880                40.3955

                     34                     35                     36
                      A                      A                      A
 Frequencies --   1291.5759              1346.9476              1389.1055
 Red. masses --      2.8587                 1.3206                 6.5059
 Frc consts  --      2.8097                 1.4116                 7.3965
 IR Inten    --    634.8998                 2.4103               705.9012

                     37                     38                     39
                      A                      A                      A
 Frequencies --   1458.2324              1460.6315              1478.0718
 Red. masses --      1.1980                 1.2104                 1.0521
 Frc consts  --      1.5010                 1.5214                 1.3542
 IR Inten    --     18.2410                10.9726                22.0917

                     40                     41                     42
                      A                      A                      A
 Frequencies --   1493.2157              1499.8616              1502.7418
 Red. masses --      1.0417                 1.0318                 1.0765
 Frc consts  --      1.3685                 1.3676                 1.4324
 IR Inten    --     25.8272                11.3652                14.4068

                     43                     44                     45
                      A                      A                      A
 Frequencies --   1555.8336              1630.7991              1671.1746
 Red. masses --      1.6678                 1.1002                 8.0095
 Frc consts  --      2.3787                 1.7239                13.1795
 IR Inten    --    414.3051               104.5421               627.1321

                     46                     47                     48
                      A                      A                      A
 Frequencies --   3048.5546              3078.9443              3122.6996
 Red. masses --      1.0415                 1.0326                 1.0953
 Frc consts  --      5.7031                 5.7673                 6.2931
 IR Inten    --     83.0198                19.0565                36.5309

                     49                     50                     51
                      A                      A                      A
 Frequencies --   3160.9100              3162.1366              3178.2834
 Red. masses --      1.1054                 1.1042                 1.1063
 Frc consts  --      6.5070                 6.5052                 6.5843
 IR Inten    --      5.9493                21.6068                 7.6027

                     52                     53                     54
                      A                      A                      A
 Frequencies --   3508.0333              3592.8999              3661.0622
 Red. masses --      1.0507                 1.0972                 1.0770
 Frc consts  --      7.6179                 8.3450                 8.5048
 IR Inten    --     67.7778                82.2668               118.5395

 - Thermochemistry -
 -------------------
 Temperature   298.150 Kelvin.  Pressure   1.00000 Atm.
 Atom     1 has atomic number  6 and mass  12.00000

 Molecular mass:   261.92753 amu.
 Principal axes and moments of inertia in atomic units:
                           1         2         3
     Eigenvalues --  2920.689743126.662644654.16812
           X            0.93331  -0.35889  -0.01113
           Y            0.35906   0.93279   0.03125
           Z           -0.00084  -0.03316   0.99945
 This molecule is an asymmetric top.
 Rotational symmetry number  1.
 Warning -- assumption of classical behavior for rotation
           may cause significant error
 Rotational temperatures (Kelvin)      0.02966     0.02770     0.01861
 Rotational constants (GHZ):           0.61792     0.57721     0.38777
    1 imaginary frequencies ignored.
 Zero-point vibrational energy     385985.3 (Joules/Mol)
                                   92.25270 (Kcal/Mol)
 Warning -- explicit consideration of  19 degrees of freedom as
           vibrations may cause significant error
 Vibrational temperatures:     46.24    93.53   107.06   144.42   198.92
          (Kelvin)            228.24   242.13   253.30   257.76   291.05
                              362.27   388.63   417.37   437.09   469.50
                              527.79   602.71   741.88   768.55   953.98
                             1054.05  1090.62  1118.10  1277.07  1378.91
                             1466.83  1528.56  1559.34  1647.05  1664.27
                             1703.39  1783.90  1858.29  1937.96  1998.61
                             2098.07  2101.52  2126.62  2148.40  2157.97
                             2162.11  2238.50  2346.36  2404.45  4386.19
                             4429.91  4492.87  4547.84  4549.61  4572.84
                             5047.28  5169.38  5267.45

 Zero-point correction=                           0.147014 (Hartree/Particle)
 Thermal correction to Energy=                    0.160661
 Thermal correction to Enthalpy=                  0.161605
 Thermal correction to Gibbs Free Energy=         0.104865
 Sum of electronic and zero-point Energies=          -3875.147205
 Sum of electronic and thermal Energies=             -3875.133558
 Sum of electronic and thermal Enthalpies=           -3875.132614
 Sum of electronic and thermal Free Energies=        -3875.189354

                     E (Thermal)             CV                S
                      KCal/Mol        Cal/Mol-Kelvin    Cal/Mol-Kelvin
 Total                  100.816             45.806            119.420
 Electronic               0.000              0.000              0.000
 Translational            0.889              2.981             42.588
 Rotational               0.889              2.981             32.119
 Vibrational             99.039             39.844             44.713
 Vibration     1          0.594              1.983              5.693
 Vibration     2          0.597              1.971              4.299
 Vibration     3          0.599              1.966              4.033
 Vibration     4          0.604              1.949              3.447
 Vibration     5          0.614              1.915              2.828
 Vibration     6          0.621              1.893              2.566
 Vibration     7          0.625              1.881              2.454
 Vibration     8          0.628              1.872              2.370
 Vibration     9          0.629              1.868              2.337
 Vibration    10          0.639              1.837              2.112
 Vibration    11          0.664              1.760              1.718
 Vibration    12          0.674              1.728              1.595
 Vibration    13          0.686              1.692              1.473
 Vibration    14          0.695              1.667              1.396
 Vibration    15          0.710              1.623              1.278
 Vibration    16          0.740              1.540              1.093
 Vibration    17          0.782              1.429              0.896
 Vibration    18          0.871              1.215              0.620
 Vibration    19          0.889              1.174              0.578

 Optimization completed.
    -- Stationary point found.
 Normal termination of Gaussian 16 at Sun Feb 28 19:08:40 2021.
