 Gaussian 16, Revision A.03,
 Gaussian 16:  ES64L-G16RevA.03 25-Dec-2016

 ----------------------------------------------------------------------
 # wB97XD def2tzvp, opt=(ts, noeigen, calcfc, maxcycles=70, maxstep=3),
  freq=noraman, scrf=(iefpcm, solvent=water)
 ----------------------------------------------------------------------

 ------------------------
 0_iteration/TS-982-0.out
 ------------------------
 Symbolic Z-matrix:
 Charge =  0 Multiplicity = 1

 SCF Done:  E(RwB97XD) =  -1380.30580680     A.U. after   15 cycles
 SCF Done:  E(RwB97XD) =  -1380.30579013     A.U. after   11 cycles
 SCF Done:  E(RwB97XD) =  -1380.30579773     A.U. after   11 cycles
 SCF Done:  E(RwB97XD) =  -1380.30586430     A.U. after   11 cycles
 SCF Done:  E(RwB97XD) =  -1380.30602800     A.U. after   11 cycles
 SCF Done:  E(RwB97XD) =  -1380.30626218     A.U. after   11 cycles
 SCF Done:  E(RwB97XD) =  -1380.30655684     A.U. after   11 cycles
 SCF Done:  E(RwB97XD) =  -1380.30689154     A.U. after   11 cycles
 SCF Done:  E(RwB97XD) =  -1380.30724415     A.U. after   11 cycles
 SCF Done:  E(RwB97XD) =  -1380.30759939     A.U. after   11 cycles
 SCF Done:  E(RwB97XD) =  -1380.30789964     A.U. after   11 cycles
 SCF Done:  E(RwB97XD) =  -1380.30811767     A.U. after   11 cycles
 SCF Done:  E(RwB97XD) =  -1380.30824598     A.U. after   11 cycles
 SCF Done:  E(RwB97XD) =  -1380.30828210     A.U. after   11 cycles
 SCF Done:  E(RwB97XD) =  -1380.30828358     A.U. after    9 cycles
 SCF Done:  E(RwB97XD) =  -1380.30828361     A.U. after    8 cycles
 SCF Done:  E(RwB97XD) =  -1380.30828369     A.U. after    7 cycles
 Optimization completed.
    -- Stationary point found.
 Normal termination of Gaussian 16 at Fri Mar 26 10:58:11 2021.

 ---------------------------------------------------------------------
 #N Geom=AllCheck Guess=TCheck SCRF=Check GenChk RwB97XD/def2TZVP Freq
 ---------------------------------------------------------------------

 Structure from the checkpoint file:  "/beegfs/scratch/user/q/tla25/Gau-37097.chk"
 ------------------------
 0_iteration/TS-982-0.out
 ------------------------
 Charge =  0 Multiplicity = 1

                         Standard orientation:
 ---------------------------------------------------------------------
 Center     Atomic      Atomic             Coordinates (Angstroms)
 Number     Number       Type             X           Y           Z
 ---------------------------------------------------------------------
      1          6           0        0.168698    0.563512   -0.225678
      2          6           0        1.269394   -0.386238   -0.090767
      3          8           0        1.075871   -1.617562   -0.046866
      4          6           0       -1.054042    0.160410    0.275471
      5          6           0       -1.803454   -1.175361   -2.041782
      6          1           0       -0.922286   -0.629768   -2.382166
      7          1           0       -1.856919   -2.124432   -2.575067
      8          1           0       -2.695904   -0.590527   -2.253444
      9          7           0       -1.675846   -1.382946   -0.608234
     10          1           0       -0.855502   -1.952813   -0.390908
     11          1           0       -2.510931   -1.762895   -0.178779
     12         17           0       -2.409743    1.258906    0.078177
     13         17           0       -1.130731   -0.576623    1.930515
     14          6           0        0.294847    1.773254   -1.127379
     15          1           0       -0.511546    1.817357   -1.861320
     16          1           0        0.291121    2.724678   -0.586459
     17          1           0        1.228058    1.721129   -1.687547
     18          7           0        2.545753    0.092220   -0.074348
     19          6           0        2.894684    1.417044    0.394651
     20          6           0        3.650470   -0.834758   -0.186093
     21          1           0        2.015254    1.928295    0.775362
     22          1           0        3.616714    1.331950    1.211278
     23          1           0        3.343950    2.021758   -0.397608
     24          1           0        3.359446   -1.686641   -0.794471
     25          1           0        4.492745   -0.326643   -0.658168
     26          1           0        3.973963   -1.201852    0.793994
 ---------------------------------------------------------------------

 SCF Done:  E(RwB97XD) =  -1380.30828369     A.U. after    1 cycles

 The electronic state is 1-A.
 Alpha  occ. eigenvalues -- -101.70856-101.69500 -19.20408 -14.48294 -14.45414
 Alpha  occ. eigenvalues --  -10.43965 -10.37643 -10.31576 -10.30723 -10.30291
 Alpha  occ. eigenvalues --  -10.27540 -10.26446  -9.59447  -9.58097  -7.34105
 Alpha  occ. eigenvalues --   -7.33219  -7.33186  -7.32737  -7.31868  -7.31854
 Alpha  occ. eigenvalues --   -1.13002  -1.04911  -1.02807  -0.99439  -0.92414
 Alpha  occ. eigenvalues --   -0.87838  -0.81394  -0.79037  -0.78849  -0.76896
 Alpha  occ. eigenvalues --   -0.67723  -0.63920  -0.61662  -0.58933  -0.57830
 Alpha  occ. eigenvalues --   -0.56392  -0.55973  -0.54749  -0.53381  -0.51536
 Alpha  occ. eigenvalues --   -0.49417  -0.48657  -0.48382  -0.48244  -0.46849
 Alpha  occ. eigenvalues --   -0.46360  -0.46214  -0.45174  -0.45014  -0.42147
 Alpha  occ. eigenvalues --   -0.40968  -0.38703  -0.38397  -0.34383  -0.31791
 Alpha  occ. eigenvalues --   -0.26623
 Alpha virt. eigenvalues --    0.05302   0.06470   0.10038   0.10834   0.12496
 Alpha virt. eigenvalues --    0.13873   0.15127   0.15519   0.16583   0.16864
 Alpha virt. eigenvalues --    0.17911   0.18920   0.19110   0.19334   0.20400

 Mulliken charges:
               1
     1  C   -0.374276
     2  C    0.349116
     3  O   -0.577713
     4  C    0.211066
     5  C   -0.308540
     6  H    0.158754
     7  H    0.159119
     8  H    0.154400
     9  N   -0.288440
    10  H    0.279763
    11  H    0.281699
    12  Cl  -0.070757
    13  Cl  -0.125286
    14  C   -0.394520
    15  H    0.137055
    16  H    0.132972
    17  H    0.139036
    18  N   -0.120720
    19  C   -0.297163
    20  C   -0.291999
    21  H    0.156127
    22  H    0.141454
    23  H    0.139958
    24  H    0.138620
    25  H    0.138250
    26  H    0.132024
 Sum of Mulliken charges =  -0.00000

 Dipole moment (field-independent basis, Debye):
    X=             -0.7570    Y=              0.1985    Z=             -3.4421  Tot=              3.5299
 Quadrupole moment (field-independent basis, Debye-Ang):
   XX=            -72.6952   YY=            -86.9675   ZZ=            -86.2874
   XY=             11.6377   XZ=              5.6495   YZ=              3.1905

  Exact polarizability: 221.600  10.103 177.041   3.799  -2.840 161.375
 Approx polarizability: 167.009   6.057 151.938   1.561  -3.335 137.116

 ******    1 imaginary frequencies (negative Signs) ******

                      1                      2                      3
                      A                      A                      A
 Frequencies --   -421.9663                58.2603                85.1675
 Red. masses --      5.9940                 4.1339                 3.2236
 Frc consts  --      0.6288                 0.0083                 0.0138
 IR Inten    --    802.8901                 4.3940                 8.0876

                      4                      5                      6
                      A                      A                      A
 Frequencies --    102.1027               110.0049               133.3200
 Red. masses --      2.7103                 2.1115                 1.8249
 Frc consts  --      0.0166                 0.0151                 0.0191
 IR Inten    --      1.4628                 4.9023                21.3210

                      7                      8                      9
                      A                      A                      A
 Frequencies --    158.1734               159.5801               174.1619
 Red. masses --      1.4903                 2.3022                 2.7398
 Frc consts  --      0.0220                 0.0345                 0.0490
 IR Inten    --      1.1768                 0.7785                 5.0997

                     10                     11                     12
                      A                      A                      A
 Frequencies --    184.1057               203.4639               213.4353
 Red. masses --      1.5411                 3.4348                 1.3527
 Frc consts  --      0.0308                 0.0838                 0.0363
 IR Inten    --      4.3810                14.7859                 3.4703

                     13                     14                     15
                      A                      A                      A
 Frequencies --    231.0990               259.8204               267.2608
 Red. masses --      2.1920                 5.6833                 1.9758
 Frc consts  --      0.0690                 0.2260                 0.0831
 IR Inten    --      4.7792                12.8780                14.0259

                     16                     17                     18
                      A                      A                      A
 Frequencies --    311.6551               328.8813               341.0023
 Red. masses --      3.2023                 4.2925                 5.1767
 Frc consts  --      0.1833                 0.2736                 0.3547
 IR Inten    --      4.7770                37.3664                 5.3324

                     19                     20                     21
                      A                      A                      A
 Frequencies --    362.3806               399.1837               422.7316
 Red. masses --      3.9260                 4.3913                 4.3007
 Frc consts  --      0.3038                 0.4123                 0.4528
 IR Inten    --     23.8847                45.2463                22.9997

                     22                     23                     24
                      A                      A                      A
 Frequencies --    503.3407               601.2889               651.9919
 Red. masses --      4.3848                 4.3472                 3.2145
 Frc consts  --      0.6545                 0.9260                 0.8051
 IR Inten    --     80.0800               112.4638                13.9445

                     25                     26                     27
                      A                      A                      A
 Frequencies --    728.8148               774.5394               787.8070
 Red. masses --      2.7567                 6.0771                 2.3894
 Frc consts  --      0.8627                 2.1480                 0.8737
 IR Inten    --     48.9090               102.6542                50.5979

                     28                     29                     30
                      A                      A                      A
 Frequencies --    817.0629               986.8753              1003.7412
 Red. masses --      7.3090                 2.2421                 1.2010
 Frc consts  --      2.8749                 1.2866                 0.7129
 IR Inten    --    180.8343                63.4777                45.6983

                     31                     32                     33
                      A                      A                      A
 Frequencies --   1037.0340              1067.9594              1086.1622
 Red. masses --      1.5859                 1.3518                 1.8490
 Frc consts  --      1.0049                 0.9084                 1.2852
 IR Inten    --    273.7232                42.1889                32.9723

                     34                     35                     36
                      A                      A                      A
 Frequencies --   1088.1242              1098.2267              1133.4419
 Red. masses --      1.3695                 2.0232                 1.2355
 Frc consts  --      0.9554                 1.4378                 0.9352
 IR Inten    --     16.9112               180.6960                 1.0354

                     37                     38                     39
                      A                      A                      A
 Frequencies --   1150.6490              1170.9171              1220.4327
 Red. masses --      2.2663                 1.4114                 1.3897
 Frc consts  --      1.7679                 1.1401                 1.2196
 IR Inten    --     55.2887                28.9323                63.2582

                     40                     41                     42
                      A                      A                      A
 Frequencies --   1275.9855              1319.7656              1357.9112
 Red. masses --      4.8133                 5.0472                 1.3023
 Frc consts  --      4.6173                 5.1795                 1.4148
 IR Inten    --    133.3910                80.8546                21.7779

                     43                     44                     45
                      A                      A                      A
 Frequencies --   1401.9618              1415.5529              1443.2798
 Red. masses --      2.8575                 1.6520                 1.3528
 Frc consts  --      3.3091                 1.9503                 1.6603
 IR Inten    --    771.1730               424.9129                25.2104

                     46                     47                     48
                      A                      A                      A
 Frequencies --   1449.3741              1457.5088              1476.6995
 Red. masses --      1.2837                 1.3388                 1.2086
 Frc consts  --      1.5888                 1.6756                 1.5528
 IR Inten    --      3.4720                27.6434                16.2862

                     49                     50                     51
                      A                      A                      A
 Frequencies --   1482.6867              1489.0529              1489.4604
 Red. masses --      1.0664                 1.0568                 1.0536
 Frc consts  --      1.3813                 1.3806                 1.3771
 IR Inten    --     10.0614                19.3439                28.8865

                     52                     53                     54
                      A                      A                      A
 Frequencies --   1491.3483              1500.6150              1503.2505
 Red. masses --      1.0722                 1.0350                 1.0559
 Frc consts  --      1.4051                 1.3733                 1.4059
 IR Inten    --     59.0266                34.3126                 8.3206

                     55                     56                     57
                      A                      A                      A
 Frequencies --   1510.7945              1538.6363              1603.3462
 Red. masses --      1.0686                 1.5854                 2.4950
 Frc consts  --      1.4370                 2.2114                 3.7791
 IR Inten    --     47.7184               191.8923               658.7696

                     58                     59                     60
                      A                      A                      A
 Frequencies --   1639.1539              3026.9987              3031.2262
 Red. masses --      1.5218                 1.0463                 1.0449
 Frc consts  --      2.4091                 5.6484                 5.6567
 IR Inten    --    106.0968                97.4342                78.7531

                     61                     62                     63
                      A                      A                      A
 Frequencies --   3037.3911              3066.7295              3089.6846
 Red. masses --      1.0394                 1.0333                 1.1029
 Frc consts  --      5.6500                 5.7255                 6.2033
 IR Inten    --    132.1288                37.2375                59.0245

                     64                     65                     66
                      A                      A                      A
 Frequencies --   3094.3202              3102.7088              3135.0851
 Red. masses --      1.0941                 1.0941                 1.0993
 Frc consts  --      6.1721                 6.2056                 6.3660
 IR Inten    --     45.7607                29.2674                26.3715

                     67                     68                     69
                      A                      A                      A
 Frequencies --   3141.3046              3168.2534              3172.2851
 Red. masses --      1.1042                 1.1052                 1.0998
 Frc consts  --      6.4199                 6.5364                 6.5210
 IR Inten    --      9.4857                14.0269                12.5678

                     70                     71                     72
                      A                      A                      A
 Frequencies --   3178.6941              3402.1882              3587.2979
 Red. masses --      1.0973                 1.0627                 1.0873
 Frc consts  --      6.5325                 7.2475                 8.2440
 IR Inten    --     12.1806               151.8111               113.4046

 - Thermochemistry -
 -------------------
 Temperature   298.150 Kelvin.  Pressure   1.00000 Atm.
 Atom     1 has atomic number  6 and mass  12.00000

 Molecular mass:   212.04832 amu.
 Principal axes and moments of inertia in atomic units:
                           1         2         3
     Eigenvalues --  1785.916603777.564083911.87155
           X            0.99902   0.03085   0.03166
           Y           -0.03546   0.98694   0.15712
           Z           -0.02639  -0.15809   0.98707
 This molecule is an asymmetric top.
 Rotational symmetry number  1.
 Warning -- assumption of classical behavior for rotation
           may cause significant error
 Rotational temperatures (Kelvin)      0.04850     0.02293     0.02214
 Rotational constants (GHZ):           1.01054     0.47775     0.46135
    1 imaginary frequencies ignored.
 Zero-point vibrational energy     559222.8 (Joules/Mol)
                                  133.65746 (Kcal/Mol)
 Warning -- explicit consideration of  22 degrees of freedom as
           vibrations may cause significant error
 Vibrational temperatures:     83.82   122.54   146.90   158.27   191.82
          (Kelvin)            227.58   229.60   250.58   264.89   292.74
                              307.09   332.50   373.82   384.53   448.40
                              473.19   490.63   521.38   574.34   608.22
                              724.20   865.12   938.07  1048.60  1114.39
                             1133.48  1175.57  1419.89  1444.16  1492.06
                             1536.56  1562.75  1565.57  1580.10  1630.77
                             1655.53  1684.69  1755.93  1835.86  1898.85
                             1953.73  2017.11  2036.66  2076.56  2085.33
                             2097.03  2124.64  2133.26  2142.42  2143.00
                             2145.72  2159.05  2162.84  2173.70  2213.75
                             2306.86  2358.38  4355.18  4361.26  4370.13
                             4412.34  4445.37  4452.04  4464.11  4510.69
                             4519.64  4558.41  4564.21  4573.43  4894.99
                             5161.32

 Zero-point correction=                           0.212997 (Hartree/Particle)
 Thermal correction to Energy=                    0.227888
 Thermal correction to Enthalpy=                  0.228832
 Thermal correction to Gibbs Free Energy=         0.171483
 Sum of electronic and zero-point Energies=          -1380.095287
 Sum of electronic and thermal Energies=             -1380.080395
 Sum of electronic and thermal Enthalpies=           -1380.079451
 Sum of electronic and thermal Free Energies=        -1380.136801

                     E (Thermal)             CV                S
                      KCal/Mol        Cal/Mol-Kelvin    Cal/Mol-Kelvin
 Total                  143.002             52.274            120.702
 Electronic               0.000              0.000              0.000
 Translational            0.889              2.981             41.959
 Rotational               0.889              2.981             31.646
 Vibrational            141.225             46.312             47.098
 Vibration     1          0.596              1.974              4.515
 Vibration     2          0.601              1.959              3.768
 Vibration     3          0.604              1.947              3.414
 Vibration     4          0.606              1.941              3.269
 Vibration     5          0.613              1.920              2.898
 Vibration     6          0.621              1.893              2.572
 Vibration     7          0.621              1.892              2.555
 Vibration     8          0.627              1.874              2.390
 Vibration     9          0.631              1.861              2.286
 Vibration    10          0.639              1.835              2.102
 Vibration    11          0.644              1.820              2.014
 Vibration    12          0.653              1.793              1.870
 Vibration    13          0.668              1.746              1.663
 Vibration    14          0.672              1.733              1.614
 Vibration    15          0.700              1.651              1.354
 Vibration    16          0.712              1.618              1.266
 Vibration    17          0.721              1.594              1.207
 Vibration    18          0.736              1.550              1.112
 Vibration    19          0.765              1.472              0.966
 Vibration    20          0.785              1.421              0.883
 Vibration    21          0.859              1.243              0.650
 Vibration    22          0.960              1.029              0.447

 Optimization completed.
    -- Stationary point found.
 Normal termination of Gaussian 16 at Fri Mar 26 11:31:33 2021.
