 Gaussian 16, Revision A.03,
 Gaussian 16:  ES64L-G16RevA.03 25-Dec-2016

 ----------------------------------------------------------------------
 # wB97XD def2tzvp, opt=(ts, noeigen, calcfc, maxcycles=70, maxstep=8),
  freq=noraman, scrf=(iefpcm, solvent=water)
 ----------------------------------------------------------------------

 ------------------------
 1_iteration/TS-955-1.out
 ------------------------
 Symbolic Z-matrix:
 Charge =  0 Multiplicity = 1

 SCF Done:  E(RwB97XD) =  -3835.99063696     A.U. after   16 cycles
 SCF Done:  E(RwB97XD) =  -3835.99041342     A.U. after   12 cycles
 SCF Done:  E(RwB97XD) =  -3835.99034569     A.U. after   12 cycles
 SCF Done:  E(RwB97XD) =  -3835.99036293     A.U. after   12 cycles
 SCF Done:  E(RwB97XD) =  -3835.99039337     A.U. after   12 cycles
 SCF Done:  E(RwB97XD) =  -3835.99042530     A.U. after   12 cycles
 SCF Done:  E(RwB97XD) =  -3835.99045468     A.U. after   12 cycles
 SCF Done:  E(RwB97XD) =  -3835.99046999     A.U. after   12 cycles
 SCF Done:  E(RwB97XD) =  -3835.99046219     A.U. after   12 cycles
 SCF Done:  E(RwB97XD) =  -3835.99047443     A.U. after   10 cycles
 SCF Done:  E(RwB97XD) =  -3835.99019640     A.U. after   12 cycles
 SCF Done:  E(RwB97XD) =  -3835.99043682     A.U. after   12 cycles
 SCF Done:  E(RwB97XD) =  -3835.99030026     A.U. after   12 cycles
 SCF Done:  E(RwB97XD) =  -3835.99043630     A.U. after   11 cycles
 SCF Done:  E(RwB97XD) =  -3835.99047393     A.U. after   10 cycles
 SCF Done:  E(RwB97XD) =  -3835.99047511     A.U. after   10 cycles
 SCF Done:  E(RwB97XD) =  -3835.99044744     A.U. after   11 cycles
 SCF Done:  E(RwB97XD) =  -3835.99047515     A.U. after   11 cycles
 SCF Done:  E(RwB97XD) =  -3835.99047533     A.U. after    8 cycles
 Optimization completed.
    -- Stationary point found.
 Normal termination of Gaussian 16 at Sun Feb 28 14:58:19 2021.

 ---------------------------------------------------------------------
 #N Geom=AllCheck Guess=TCheck SCRF=Check GenChk RwB97XD/def2TZVP Freq
 ---------------------------------------------------------------------

 Structure from the checkpoint file:  "/beegfs/scratch/user/q/tla25/Gau-97747.chk"
 ------------------------
 1_iteration/TS-955-1.out
 ------------------------
 Charge =  0 Multiplicity = 1

                         Standard orientation:
 ---------------------------------------------------------------------
 Center     Atomic      Atomic             Coordinates (Angstroms)
 Number     Number       Type             X           Y           Z
 ---------------------------------------------------------------------
      1          6           0       -1.150976    0.138124   -0.074640
      2          6           0       -1.661692   -1.161336    0.345411
      3          8           0       -0.917868   -2.010338    0.851603
      4          6           0        0.206744    0.397496   -0.106960
      5          6           0        2.282552    0.434652    2.073664
      6          1           0        2.442866    0.331939    3.148286
      7          1           0        2.878435   -0.312520    1.554237
      8          1           0        2.601252    1.427440    1.760144
      9          7           0        0.877509    0.250934    1.730251
     10          1           0        0.535565   -0.687720    1.922977
     11          1           0        0.279418    0.915205    2.208192
     12         17           0        0.737948    2.002244   -0.514869
     13         35           0        1.391670   -0.918579   -0.922073
     14         17           0       -2.296051    1.455841   -0.205685
     15          7           0       -2.980371   -1.404820    0.182292
     16          1           0       -3.604225   -0.733967   -0.225520
     17          1           0       -3.350800   -2.271277    0.528178
 ---------------------------------------------------------------------

 SCF Done:  E(RwB97XD) =  -3835.99047533     A.U. after    1 cycles

 The electronic state is 1-A.
 Alpha  occ. eigenvalues -- -483.13823-101.71957-101.70120 -62.68664 -56.47804
 Alpha  occ. eigenvalues --  -56.47416 -56.47403 -19.21389 -14.48473 -14.44853
 Alpha  occ. eigenvalues --  -10.45065 -10.39665 -10.32701 -10.31810  -9.60528
 Alpha  occ. eigenvalues --   -9.58636  -8.82769  -7.35213  -7.34292  -7.34247
 Alpha  occ. eigenvalues --   -7.33291  -7.32422  -7.32388  -6.64988  -6.63758
 Alpha  occ. eigenvalues --   -6.63717  -2.75359  -2.75016  -2.74983  -2.73989
 Alpha  occ. eigenvalues --   -2.73988  -1.14154  -1.04667  -1.01301  -1.00186
 Alpha  occ. eigenvalues --   -0.95364  -0.89780  -0.83065  -0.78868  -0.73181
 Alpha  occ. eigenvalues --   -0.65650  -0.63268  -0.62146  -0.58561  -0.56740
 Alpha  occ. eigenvalues --   -0.56066  -0.54507  -0.52683  -0.50827  -0.49141
 Alpha  occ. eigenvalues --   -0.48038  -0.47597  -0.43186  -0.43036  -0.40867
 Alpha  occ. eigenvalues --   -0.40266  -0.38097  -0.37648  -0.35685  -0.34596
 Alpha  occ. eigenvalues --   -0.28193
 Alpha virt. eigenvalues --    0.01635   0.04548   0.07028   0.10976   0.13359
 Alpha virt. eigenvalues --    0.13749   0.15232   0.17135   0.17426   0.18033
 Alpha virt. eigenvalues --    0.18651   0.19961   0.20535   0.22232   0.25076

 Mulliken charges:
               1
     1  C   -0.214679
     2  C    0.352775
     3  O   -0.532809
     4  C    0.142142
     5  C   -0.268683
     6  H    0.154784
     7  H    0.150444
     8  H    0.148204
     9  N   -0.350918
    10  H    0.282744
    11  H    0.284544
    12  Cl  -0.029620
    13  Br  -0.068429
    14  Cl  -0.138870
    15  N   -0.462166
    16  H    0.274560
    17  H    0.275977
 Sum of Mulliken charges =  -0.00000

 Dipole moment (field-independent basis, Debye):
    X=              0.5000    Y=              1.8406    Z=              4.0082  Tot=              4.4389
 Quadrupole moment (field-independent basis, Debye-Ang):
   XX=            -70.7993   YY=            -90.3880   ZZ=            -78.1475
   XY=              5.5772   XZ=              5.5424   YZ=              4.5280

  Exact polarizability: 199.450   1.427 161.894  12.888   0.877 136.304
 Approx polarizability: 153.852  -4.101 140.642   8.340  -1.270 118.229

 ******    1 imaginary frequencies (negative Signs) ******

                      1                      2                      3
                      A                      A                      A
 Frequencies --   -360.6899                60.7745                74.0016
 Red. masses --      6.9496                 5.3564                 4.1473
 Frc consts  --      0.5327                 0.0117                 0.0134
 IR Inten    --    769.1548                 9.1358                10.2530

                      4                      5                      6
                      A                      A                      A
 Frequencies --     92.2323               108.7414               151.4127
 Red. masses --      2.6197                 3.6093                 3.0031
 Frc consts  --      0.0131                 0.0251                 0.0406
 IR Inten    --      3.6605                11.4965                88.9730

                      7                      8                      9
                      A                      A                      A
 Frequencies --    152.8783               157.2547               195.1262
 Red. masses --      1.4999                 2.0100                 6.1123
 Frc consts  --      0.0207                 0.0293                 0.1371
 IR Inten    --    207.4507                13.2534                30.3915

                     10                     11                     12
                      A                      A                      A
 Frequencies --    227.8220               232.3176               246.1849
 Red. masses --     22.6175                 3.1287                 6.7201
 Frc consts  --      0.6916                 0.0995                 0.2400
 IR Inten    --      3.6480                 7.4487                 6.3304

                     13                     14                     15
                      A                      A                      A
 Frequencies --    273.3999               335.8365               369.9325
 Red. masses --      6.9834                 4.0511                 9.9677
 Frc consts  --      0.3075                 0.2692                 0.8037
 IR Inten    --      6.0066                13.1149                17.2668

                     16                     17                     18
                      A                      A                      A
 Frequencies --    437.6106               483.4566               556.3490
 Red. masses --      5.7592                 5.4927                 1.2103
 Frc consts  --      0.6498                 0.7564                 0.2207
 IR Inten    --     92.1467               107.8759                15.5627

                     19                     20                     21
                      A                      A                      A
 Frequencies --    606.1440               663.9896               765.1927
 Red. masses --      3.3143                 1.6216                 3.9991
 Frc consts  --      0.7175                 0.4212                 1.3796
 IR Inten    --     63.3542                23.7660               220.3744

                     22                     23                     24
                      A                      A                      A
 Frequencies --    780.1222               863.7541              1025.6374
 Red. masses --      8.9669                 5.4935                 1.1701
 Frc consts  --      3.2153                 2.4148                 0.7252
 IR Inten    --     65.5759                92.3731                 6.5310

                     25                     26                     27
                      A                      A                      A
 Frequencies --   1039.9533              1062.4029              1079.2738
 Red. masses --      1.1925                 2.4023                 4.2546
 Frc consts  --      0.7599                 1.5976                 2.9199
 IR Inten    --     93.3981                22.2544               176.0812

                     28                     29                     30
                      A                      A                      A
 Frequencies --   1103.1309              1208.2943              1341.9757
 Red. masses --      2.9576                 1.3973                 1.3126
 Frc consts  --      2.1205                 1.2020                 1.3927
 IR Inten    --     16.6107                30.4413                 4.9094

                     31                     32                     33
                      A                      A                      A
 Frequencies --   1394.2317              1408.3888              1458.0092
 Red. masses --      4.3353                 7.8685                 1.2023
 Frc consts  --      4.9653                 9.1957                 1.5058
 IR Inten    --    990.6468               535.0847                28.2154

                     34                     35                     36
                      A                      A                      A
 Frequencies --   1490.3158              1499.0772              1603.2070
 Red. masses --      1.0418                 1.0300                 1.4004
 Frc consts  --      1.3634                 1.3637                 2.1207
 IR Inten    --     20.2283                20.7614               258.8960

                     37                     38                     39
                      A                      A                      A
 Frequencies --   1650.1023              1668.8000              3064.7557
 Red. masses --      1.1050                 5.0225                 1.0361
 Frc consts  --      1.7727                 8.2410                 5.7339
 IR Inten    --     82.8634               574.6447                48.2015

                     40                     41                     42
                      A                      A                      A
 Frequencies --   3141.9646              3172.4325              3480.6695
 Red. masses --      1.1015                 1.1052                 1.0559
 Frc consts  --      6.4068                 6.5533                 7.5369
 IR Inten    --     12.7666                10.6861                58.0387

                     43                     44                     45
                      A                      A                      A
 Frequencies --   3586.0950              3634.9547              3763.8316
 Red. masses --      1.0929                 1.0452                 1.1059
 Frc consts  --      8.2810                 8.1369                 9.2306
 IR Inten    --     67.8597               123.7157               102.7738

 - Thermochemistry -
 -------------------
 Temperature   298.150 Kelvin.  Pressure   1.00000 Atm.
 Atom     1 has atomic number  6 and mass  12.00000

 Molecular mass:   247.91188 amu.
 Principal axes and moments of inertia in atomic units:
                           1         2         3
     Eigenvalues --  2169.324663118.690623814.60492
           X            0.99294   0.10197   0.06058
           Y           -0.10165   0.99478  -0.00837
           Z           -0.06112   0.00215   0.99813
 This molecule is an asymmetric top.
 Rotational symmetry number  1.
 Warning -- assumption of classical behavior for rotation
           may cause significant error
 Rotational temperatures (Kelvin)      0.03993     0.02777     0.02271
 Rotational constants (GHZ):           0.83194     0.57869     0.47311
    1 imaginary frequencies ignored.
 Zero-point vibrational energy     309306.7 (Joules/Mol)
                                   73.92607 (Kcal/Mol)
 Warning -- explicit consideration of  18 degrees of freedom as
           vibrations may cause significant error
 Vibrational temperatures:     87.44   106.47   132.70   156.45   217.85
          (Kelvin)            219.96   226.25   280.74   327.79   334.25
                              354.21   393.36   483.19   532.25   629.62
                              695.59   800.46   872.11   955.33  1100.94
                             1122.42  1242.75  1475.66  1496.26  1528.56
                             1552.83  1587.16  1738.47  1930.80  2005.99
                             2026.36  2097.75  2144.23  2156.84  2306.66
                             2374.13  2401.03  4409.50  4520.59  4564.42
                             5007.91  5159.59  5229.89  5415.31

 Zero-point correction=                           0.117809 (Hartree/Particle)
 Thermal correction to Energy=                    0.130306
 Thermal correction to Enthalpy=                  0.131250
 Thermal correction to Gibbs Free Energy=         0.077616
 Sum of electronic and zero-point Energies=          -3835.872667
 Sum of electronic and thermal Energies=             -3835.860170
 Sum of electronic and thermal Enthalpies=           -3835.859225
 Sum of electronic and thermal Free Energies=        -3835.912859

                     E (Thermal)             CV                S
                      KCal/Mol        Cal/Mol-Kelvin    Cal/Mol-Kelvin
 Total                   81.768             41.714            112.882
 Electronic               0.000              0.000              0.000
 Translational            0.889              2.981             42.424
 Rotational               0.889              2.981             31.623
 Vibrational             79.991             35.752             38.834
 Vibration     1          0.597              1.973              4.432
 Vibration     2          0.599              1.966              4.044
 Vibration     3          0.602              1.955              3.612
 Vibration     4          0.606              1.942              3.291
 Vibration     5          0.619              1.901              2.654
 Vibration     6          0.619              1.899              2.636
 Vibration     7          0.621              1.895              2.583
 Vibration     8          0.636              1.847              2.179
 Vibration     9          0.651              1.799              1.896
 Vibration    10          0.653              1.792              1.861
 Vibration    11          0.661              1.769              1.758
 Vibration    12          0.676              1.722              1.575
 Vibration    13          0.717              1.604              1.232
 Vibration    14          0.742              1.534              1.080
 Vibration    15          0.798              1.388              0.834
 Vibration    16          0.840              1.287              0.701
 Vibration    17          0.912              1.126              0.531
 Vibration    18          0.965              1.019              0.439

 Optimization completed.
    -- Stationary point found.
 Normal termination of Gaussian 16 at Sun Feb 28 15:11:23 2021.
