 Gaussian 16, Revision A.03,
 Gaussian 16:  ES64L-G16RevA.03 25-Dec-2016

 ----------------------------------------------------------------------
 # wB97XD def2tzvp, opt=(ts, noeigen, calcfc, maxcycles=70, maxstep=8),
  freq=noraman, scrf=(iefpcm, solvent=water)
 ----------------------------------------------------------------------

 ------------------------
 1_iteration/TS-932-1.out
 ------------------------
 Symbolic Z-matrix:
 Charge =  0 Multiplicity = 1

 SCF Done:  E(RwB97XD) =  -3435.56081563     A.U. after   15 cycles
 SCF Done:  E(RwB97XD) =  -3435.56170759     A.U. after   12 cycles
 SCF Done:  E(RwB97XD) =  -3435.56238056     A.U. after   12 cycles
 SCF Done:  E(RwB97XD) =  -3435.56269989     A.U. after   12 cycles
 SCF Done:  E(RwB97XD) =  -3435.56282423     A.U. after   12 cycles
 SCF Done:  E(RwB97XD) =  -3435.56284931     A.U. after   12 cycles
 SCF Done:  E(RwB97XD) =  -3435.56287137     A.U. after   12 cycles
 SCF Done:  E(RwB97XD) =  -3435.56287919     A.U. after   10 cycles
 SCF Done:  E(RwB97XD) =  -3435.56287942     A.U. after    9 cycles
 SCF Done:  E(RwB97XD) =  -3435.56287911     A.U. after    8 cycles
 SCF Done:  E(RwB97XD) =  -3435.56287436     A.U. after   10 cycles
 SCF Done:  E(RwB97XD) =  -3435.56287913     A.U. after   10 cycles
 SCF Done:  E(RwB97XD) =  -3435.56287235     A.U. after   10 cycles
 SCF Done:  E(RwB97XD) =  -3435.56287945     A.U. after    9 cycles
 SCF Done:  E(RwB97XD) =  -3435.56287944     A.U. after    6 cycles
 SCF Done:  E(RwB97XD) =  -3435.56287944     A.U. after    6 cycles
 SCF Done:  E(RwB97XD) =  -3435.56287944     A.U. after    6 cycles
 Optimization completed.
    -- Stationary point found.
 Normal termination of Gaussian 16 at Sun Feb 28 13:48:50 2021.

 ---------------------------------------------------------------------
 #N Geom=AllCheck Guess=TCheck SCRF=Check GenChk RwB97XD/def2TZVP Freq
 ---------------------------------------------------------------------

 Structure from the checkpoint file:  "/beegfs/scratch/user/q/tla25/Gau-90249.chk"
 ------------------------
 1_iteration/TS-932-1.out
 ------------------------
 Charge =  0 Multiplicity = 1

                         Standard orientation:
 ---------------------------------------------------------------------
 Center     Atomic      Atomic             Coordinates (Angstroms)
 Number     Number       Type             X           Y           Z
 ---------------------------------------------------------------------
      1          6           0       -0.634242    0.483952   -0.833759
      2          6           0       -1.784606   -0.031524   -0.146744
      3          8           0       -1.788763   -0.603444    0.931947
      4          6           0        0.645870    0.267599   -0.392237
      5          6           0        0.462497    2.541665    1.306304
      6          1           0        0.219638    2.939255    2.291646
      7          1           0        1.254748    3.139087    0.860976
      8          1           0       -0.427423    2.599276    0.674070
      9          7           0        0.879846    1.152191    1.372952
     10          1           0        1.823727    1.033502    1.720632
     11          1           0        0.245022    0.593108    1.932809
     12         17           0        1.911228    1.052988   -1.305624
     13         35           0        1.221228   -1.488388    0.214951
     14          1           0       -0.786609    1.191303   -1.634113
     15          8           0       -2.924478    0.224146   -0.820882
     16          6           0       -4.134770   -0.179754   -0.190241
     17          1           0       -4.933771    0.119079   -0.863608
     18          1           0       -4.155895   -1.259652   -0.043001
     19          1           0       -4.254794    0.315225    0.773801
 ---------------------------------------------------------------------

 SCF Done:  E(RwB97XD) =  -3435.56287944     A.U. after    1 cycles

 The electronic state is 1-A.
 Alpha  occ. eigenvalues -- -483.13763-101.71528 -62.68614 -56.47744 -56.47367
 Alpha  occ. eigenvalues --  -56.47355 -19.28868 -19.22466 -14.48350 -10.44324
 Alpha  occ. eigenvalues --  -10.40731 -10.32895 -10.31624 -10.27229  -9.60099
 Alpha  occ. eigenvalues --   -8.82726  -7.34774  -7.33863  -7.33832  -6.64922
 Alpha  occ. eigenvalues --   -6.63728  -6.63688  -2.75299  -2.74963  -2.74932
 Alpha  occ. eigenvalues --   -2.73966  -2.73966  -1.20361  -1.10989  -1.04357
 Alpha  occ. eigenvalues --   -0.99507  -0.89920  -0.86700  -0.81141  -0.78809
 Alpha  occ. eigenvalues --   -0.70089  -0.64140  -0.63098  -0.60151  -0.58008
 Alpha  occ. eigenvalues --   -0.57278  -0.56858  -0.54636  -0.53945  -0.50898
 Alpha  occ. eigenvalues --   -0.48870  -0.48141  -0.47856  -0.46715  -0.44027
 Alpha  occ. eigenvalues --   -0.41971  -0.40446  -0.38901  -0.37778  -0.37232
 Alpha  occ. eigenvalues --   -0.35718  -0.29731
 Alpha virt. eigenvalues --    0.02249   0.04496   0.09170   0.10886   0.13611
 Alpha virt. eigenvalues --    0.14598   0.15972   0.16489   0.17181   0.18831
 Alpha virt. eigenvalues --    0.19200   0.20449   0.20470   0.21407   0.22039

 Mulliken charges:
               1
     1  C   -0.553360
     2  C    0.465943
     3  O   -0.490241
     4  C    0.241988
     5  C   -0.279219
     6  H    0.156838
     7  H    0.155649
     8  H    0.146746
     9  N   -0.369273
    10  H    0.291642
    11  H    0.284606
    12  Cl  -0.058559
    13  Br  -0.070722
    14  H    0.166256
    15  O   -0.300782
    16  C   -0.187880
    17  H    0.141469
    18  H    0.129805
    19  H    0.129093
 Sum of Mulliken charges =  -0.00000

 Dipole moment (field-independent basis, Debye):
    X=              1.2484    Y=              4.3321    Z=              2.8931  Tot=              5.3569
 Quadrupole moment (field-independent basis, Debye-Ang):
   XX=            -71.0867   YY=            -74.0214   ZZ=            -76.7047
   XY=              1.9953   XZ=              5.4885   YZ=              6.0190

  Exact polarizability: 181.215   6.180 151.406   6.237  -2.526 140.361
 Approx polarizability: 138.247   3.475 125.491   4.481  -6.840 124.455

 ******    1 imaginary frequencies (negative Signs) ******

                      1                      2                      3
                      A                      A                      A
 Frequencies --   -382.5606                57.6550                73.0376
 Red. masses --      5.3193                 3.9911                 5.2135
 Frc consts  --      0.4587                 0.0078                 0.0164
 IR Inten    --    638.4580                 2.3877                10.6166

                      4                      5                      6
                      A                      A                      A
 Frequencies --    105.1429               112.0559               142.5048
 Red. masses --      3.1212                 3.0945                 2.0801
 Frc consts  --      0.0203                 0.0229                 0.0249
 IR Inten    --      1.9794                 4.9132                12.3191

                      7                      8                      9
                      A                      A                      A
 Frequencies --    158.0101               166.6282               187.9191
 Red. masses --      3.1546                 1.3602                 1.6472
 Frc consts  --      0.0464                 0.0223                 0.0343
 IR Inten    --      2.9974                 0.8435                 3.1994

                     10                     11                     12
                      A                      A                      A
 Frequencies --    215.9106               246.3967               271.6243
 Red. masses --     12.2805                 3.6697                 5.3432
 Frc consts  --      0.3373                 0.1313                 0.2323
 IR Inten    --      9.7467                 4.8695                24.2661

                     13                     14                     15
                      A                      A                      A
 Frequencies --    294.9213               342.5477               359.9365
 Red. masses --      4.1953                 8.6654                 5.6962
 Frc consts  --      0.2150                 0.5991                 0.4348
 IR Inten    --      2.8808                 3.8032                51.1485

                     16                     17                     18
                      A                      A                      A
 Frequencies --    459.7498               575.7153               665.0600
 Red. masses --      4.4166                 2.1585                 1.3236
 Frc consts  --      0.5500                 0.4215                 0.3449
 IR Inten    --     39.4587                47.9175                65.6120

                     19                     20                     21
                      A                      A                      A
 Frequencies --    695.6921               718.8578               803.8568
 Red. masses --      2.2739                 4.8492                 8.3027
 Frc consts  --      0.6484                 1.4764                 3.1610
 IR Inten    --    108.6935                36.8138                84.7923

                     22                     23                     24
                      A                      A                      A
 Frequencies --    845.9603               981.3114               992.4152
 Red. masses --      5.7877                 4.1466                 1.0995
 Frc consts  --      2.4404                 2.3526                 0.6380
 IR Inten    --    136.2333               116.3394                75.2098

                     25                     26                     27
                      A                      A                      A
 Frequencies --   1038.5354              1081.3116              1089.4178
 Red. masses --      1.1850                 5.8042                 4.5253
 Frc consts  --      0.7531                 3.9985                 3.1644
 IR Inten    --     94.1031               114.7284                31.1952

                     28                     29                     30
                      A                      A                      A
 Frequencies --   1182.4369              1197.8566              1200.9623
 Red. masses --      1.2831                 1.8054                 1.4243
 Frc consts  --      1.0570                 1.5263                 1.2104
 IR Inten    --      1.8380               858.8880                78.5623

                     31                     32                     33
                      A                      A                      A
 Frequencies --   1218.2559              1320.1012              1342.4514
 Red. masses --      1.5295                 3.0403                 1.3525
 Frc consts  --      1.3374                 3.1216                 1.4361
 IR Inten    --     56.2737               144.3842                20.5753

                     34                     35                     36
                      A                      A                      A
 Frequencies --   1455.9072              1474.0419              1482.2358
 Red. masses --      1.3007                 1.3447                 1.0694
 Frc consts  --      1.6245                 1.7215                 1.3843
 IR Inten    --    208.7428                77.9283                44.1124

                     37                     38                     39
                      A                      A                      A
 Frequencies --   1488.9334              1491.6351              1502.4729
 Red. masses --      1.1865                 1.1226                 1.3811
 Frc consts  --      1.5498                 1.4716                 1.8369
 IR Inten    --    315.2479               146.9824               396.5139

                     40                     41                     42
                      A                      A                      A
 Frequencies --   1505.5415              1643.4931              1711.5751
 Red. masses --      1.2198                 1.1067                 9.5855
 Frc consts  --      1.6290                 1.7613                16.5445
 IR Inten    --    119.9710                96.0822               452.5756

                     43                     44                     45
                      A                      A                      A
 Frequencies --   3053.8563              3063.3683              3127.2755
 Red. masses --      1.0370                 1.0311                 1.1006
 Frc consts  --      5.6978                 5.7007                 6.3417
 IR Inten    --     36.6853                53.7191                11.4560

                     46                     47                     48
                      A                      A                      A
 Frequencies --   3139.1447              3168.8602              3176.1004
 Red. masses --      1.1068                 1.1042                 1.1053
 Frc consts  --      6.4259                 6.5331                 6.5690
 IR Inten    --     36.2094                12.6227                24.4718

                     49                     50                     51
                      A                      A                      A
 Frequencies --   3242.3381              3521.5496              3613.4250
 Red. masses --      1.0901                 1.0502                 1.0973
 Frc consts  --      6.7519                 7.6737                 8.4416
 IR Inten    --      2.5961                43.4970                78.1004

 - Thermochemistry -
 -------------------
 Temperature   298.150 Kelvin.  Pressure   1.00000 Atm.
 Atom     1 has atomic number  6 and mass  12.00000

 Molecular mass:   228.95052 amu.
 Principal axes and moments of inertia in atomic units:
                           1         2         3
     Eigenvalues --  1821.329913306.118993976.10043
           X            0.99885   0.04574   0.01431
           Y           -0.04686   0.99468   0.09175
           Z           -0.01003  -0.09231   0.99568
 This molecule is an asymmetric top.
 Rotational symmetry number  1.
 Warning -- assumption of classical behavior for rotation
           may cause significant error
 Rotational temperatures (Kelvin)      0.04756     0.02620     0.02178
 Rotational constants (GHZ):           0.99089     0.54588     0.45390
    1 imaginary frequencies ignored.
 Zero-point vibrational energy     376859.5 (Joules/Mol)
                                   90.07159 (Kcal/Mol)
 Warning -- explicit consideration of  16 degrees of freedom as
           vibrations may cause significant error
 Vibrational temperatures:     82.95   105.08   151.28   161.22   205.03
          (Kelvin)            227.34   239.74   270.37   310.65   354.51
                              390.81   424.33   492.85   517.87   661.48
                              828.33   956.87  1000.95  1034.28  1156.57
                             1217.15  1411.89  1427.86  1494.22  1555.77
                             1567.43  1701.26  1723.45  1727.92  1752.80
                             1899.33  1931.49  2094.73  2120.82  2132.61
                             2142.24  2146.13  2161.72  2166.14  2364.62
                             2462.57  4393.82  4407.50  4499.45  4516.53
                             4559.28  4569.70  4665.00  5066.72  5198.91

 Zero-point correction=                           0.143538 (Hartree/Particle)
 Thermal correction to Energy=                    0.155736
 Thermal correction to Enthalpy=                  0.156680
 Thermal correction to Gibbs Free Energy=         0.103748
 Sum of electronic and zero-point Energies=          -3435.419341
 Sum of electronic and thermal Energies=             -3435.407143
 Sum of electronic and thermal Enthalpies=           -3435.406199
 Sum of electronic and thermal Free Energies=        -3435.459131

                     E (Thermal)             CV                S
                      KCal/Mol        Cal/Mol-Kelvin    Cal/Mol-Kelvin
 Total                   97.726             41.072            111.405
 Electronic               0.000              0.000              0.000
 Translational            0.889              2.981             42.187
 Rotational               0.889              2.981             31.549
 Vibrational             95.948             35.110             37.669
 Vibration     1          0.596              1.974              4.536
 Vibration     2          0.599              1.967              4.070
 Vibration     3          0.605              1.945              3.357
 Vibration     4          0.607              1.939              3.233
 Vibration     5          0.616              1.911              2.770
 Vibration     6          0.621              1.894              2.573
 Vibration     7          0.624              1.884              2.473
 Vibration     8          0.633              1.856              2.248
 Vibration     9          0.645              1.817              1.993
 Vibration    10          0.661              1.769              1.756
 Vibration    11          0.675              1.726              1.586
 Vibration    12          0.689              1.683              1.446
 Vibration    13          0.722              1.590              1.200
 Vibration    14          0.734              1.555              1.122
 Vibration    15          0.818              1.339              0.767
 Vibration    16          0.932              1.084              0.493

 Optimization completed.
    -- Stationary point found.
 Normal termination of Gaussian 16 at Sun Feb 28 14:01:56 2021.
