 Gaussian 16, Revision A.03,
 Gaussian 16:  ES64L-G16RevA.03 25-Dec-2016

 ----------------------------------------------------------------------
 # wB97XD def2tzvp, opt=(ts, noeigen, calcfc, maxcycles=70, maxstep=8),
  freq=noraman, scrf=(iefpcm, solvent=water)
 ----------------------------------------------------------------------

 ------------------------
 1_iteration/TS-941-1.out
 ------------------------
 Symbolic Z-matrix:
 Charge =  0 Multiplicity = 1

 SCF Done:  E(RwB97XD) =  -3454.99932068     A.U. after   15 cycles
 Optimization completed.
    -- Stationary point found.
 Normal termination of Gaussian 16 at Sun Feb 28 13:56:41 2021.

 ---------------------------------------------------------------------
 #N Geom=AllCheck Guess=TCheck SCRF=Check GenChk RwB97XD/def2TZVP Freq
 ---------------------------------------------------------------------

 Structure from the checkpoint file:  "/beegfs/scratch/user/q/tla25/Gau-31464.chk"
 ------------------------
 1_iteration/TS-941-1.out
 ------------------------
 Charge =  0 Multiplicity = 1

                         Standard orientation:
 ---------------------------------------------------------------------
 Center     Atomic      Atomic             Coordinates (Angstroms)
 Number     Number       Type             X           Y           Z
 ---------------------------------------------------------------------
      1          6           0       -0.372214    1.151400   -0.109600
      2          6           0       -1.768123    0.746417   -0.187890
      3          8           0       -2.637255    1.548406   -0.570470
      4          6           0        0.760637    0.344942   -0.005330
      5          6           0        0.395358   -0.253989    2.576920
      6          1           0        0.178180   -1.307409    2.420500
      7          1           0        0.771548   -0.103788    3.585920
      8          1           0       -0.502723    0.342129    2.422270
      9          7           0        1.398278    0.183713    1.602210
     10          1           0        1.721046    1.121863    1.824940
     11          1           0        2.212959   -0.425066    1.591030
     12         17           0        2.275306    1.035264   -0.760910
     13         35           0        0.709101   -1.548959   -0.548040
     14          6           0       -0.147977    2.651210   -0.145610
     15          1           0        0.654033    2.970581    0.523980
     16          1           0        0.101223    3.023770   -1.144670
     17          1           0       -1.060268    3.152418    0.170770
     18          7           0       -2.174691   -0.496694    0.198340
     19          6           0       -3.520380   -0.958496   -0.044330
     20          1           0       -1.499390   -1.177442    0.484990
     21          1           0       -3.596689   -1.989426    0.296690
     22          1           0       -4.250202   -0.357997    0.500980
     23          1           0       -3.779311   -0.920856   -1.105630
 ---------------------------------------------------------------------

 SCF Done:  E(RwB97XD) =  -3454.99932068     A.U. after    1 cycles

 The electronic state is 1-A.
 Alpha  occ. eigenvalues -- -483.14249-101.70100 -62.69098 -56.48221 -56.47855
 Alpha  occ. eigenvalues --  -56.47845 -19.18890 -14.53115 -14.43755 -10.45192
 Alpha  occ. eigenvalues --  -10.36980 -10.33156 -10.30300 -10.26789 -10.26127
 Alpha  occ. eigenvalues --   -9.58703  -8.83205  -7.33337  -7.32484  -7.32454
 Alpha  occ. eigenvalues --   -6.65372  -6.64215  -6.64187  -2.75750  -2.75427
 Alpha  occ. eigenvalues --   -2.75404  -2.74470  -2.74468  -1.11741  -1.08694
 Alpha  occ. eigenvalues --   -1.00372  -0.97781  -0.89638  -0.86890  -0.81283
 Alpha  occ. eigenvalues --   -0.79671  -0.76138  -0.69211  -0.66672  -0.65297
 Alpha  occ. eigenvalues --   -0.61201  -0.59140  -0.55949  -0.55417  -0.53154
 Alpha  occ. eigenvalues --   -0.52001  -0.50269  -0.49817  -0.49761  -0.47853
 Alpha  occ. eigenvalues --   -0.46755  -0.45687  -0.44600  -0.43898  -0.41373
 Alpha  occ. eigenvalues --   -0.40657  -0.38928  -0.37529  -0.33125  -0.32537
 Alpha  occ. eigenvalues --   -0.26290
 Alpha virt. eigenvalues --    0.03085   0.06599   0.08324   0.09658   0.12428
 Alpha virt. eigenvalues --    0.13658   0.15015   0.15540   0.15922   0.17327
 Alpha virt. eigenvalues --    0.18738   0.18922   0.20354   0.20788   0.20998

 Mulliken charges:
               1
     1  C   -0.292073
     2  C    0.359341
     3  O   -0.562039
     4  C    0.064314
     5  C   -0.338264
     6  H    0.175555
     7  H    0.181102
     8  H    0.175010
     9  N   -0.188207
    10  H    0.300574
    11  H    0.309257
    12  Cl  -0.110575
    13  Br  -0.095953
    14  C   -0.389362
    15  H    0.115623
    16  H    0.120800
    17  H    0.128969
    18  N   -0.312735
    19  C   -0.249652
    20  H    0.231464
    21  H    0.135176
    22  H    0.122236
    23  H    0.119441
 Sum of Mulliken charges =   0.00000

 Dipole moment (field-independent basis, Debye):
    X=              6.6560    Y=             -4.9179    Z=              8.5170  Tot=             11.8755
 Quadrupole moment (field-independent basis, Debye-Ang):
   XX=            -94.1549   YY=            -90.3093   ZZ=            -75.7854
   XY=             13.6384   XZ=              4.8719   YZ=              3.5486

  Exact polarizability: 208.738  -4.135 185.654   2.245  -5.287 150.317
 Approx polarizability: 162.532  -3.984 153.755   2.115  -4.189 129.238

 ******    1 imaginary frequencies (negative Signs) ******

                      1                      2                      3
                      A                      A                      A
 Frequencies --   -317.7795                27.8594                54.1918
 Red. masses --      6.0670                 4.1678                 3.2092
 Frc consts  --      0.3610                 0.0019                 0.0056
 IR Inten    --    514.4593                 1.7496                 2.7445

                      4                      5                      6
                      A                      A                      A
 Frequencies --     84.5637                98.1348               121.7101
 Red. masses --      3.3326                 2.5565                 1.3269
 Frc consts  --      0.0140                 0.0145                 0.0116
 IR Inten    --     44.7496                 1.8698                 2.6397

                      7                      8                      9
                      A                      A                      A
 Frequencies --    132.0405               164.4870               167.6963
 Red. masses --      1.2082                 3.4971                 3.0890
 Frc consts  --      0.0124                 0.0557                 0.0512
 IR Inten    --      1.1677                 1.0974                 0.4487

                     10                     11                     12
                      A                      A                      A
 Frequencies --    187.8785               220.2262               222.3318
 Red. masses --      2.5945                 2.5814                 5.3099
 Frc consts  --      0.0540                 0.0738                 0.1546
 IR Inten    --      4.1471                 1.4222                20.5126

                     13                     14                     15
                      A                      A                      A
 Frequencies --    231.1736               278.6726               312.5237
 Red. masses --      2.5683                 2.8691                 3.3383
 Frc consts  --      0.0809                 0.1313                 0.1921
 IR Inten    --      4.2986                11.1101                16.1486

                     16                     17                     18
                      A                      A                      A
 Frequencies --    342.2706               365.8347               389.5247
 Red. masses --      3.2967                 6.2029                 3.3329
 Frc consts  --      0.2275                 0.4891                 0.2980
 IR Inten    --     35.7402                50.4158                30.5895

                     19                     20                     21
                      A                      A                      A
 Frequencies --    416.7159               488.9086               537.2294
 Red. masses --      1.3697                 5.0177                 4.3588
 Frc consts  --      0.1401                 0.7067                 0.7412
 IR Inten    --     91.7900                19.2540               226.5572

                     22                     23                     24
                      A                      A                      A
 Frequencies --    663.6298               720.4590               775.7289
 Red. masses --      2.5964                 5.2351                 6.9408
 Frc consts  --      0.6737                 1.6010                 2.4608
 IR Inten    --     78.6657               188.4703                48.1963

                     25                     26                     27
                      A                      A                      A
 Frequencies --    816.0980               887.6078               993.9549
 Red. masses --      2.0973                 2.5628                 1.7758
 Frc consts  --      0.8230                 1.1896                 1.0337
 IR Inten    --     79.4946                97.5733               213.3623

                     28                     29                     30
                      A                      A                      A
 Frequencies --   1045.6002              1054.1865              1061.3681
 Red. masses --      1.7549                 2.2894                 1.6105
 Frc consts  --      1.1304                 1.4990                 1.0689
 IR Inten    --     23.0789                78.4772                 6.0349

                     31                     32                     33
                      A                      A                      A
 Frequencies --   1078.5087              1118.1579              1154.4246
 Red. masses --      1.6585                 1.4434                 1.2993
 Frc consts  --      1.1366                 1.0633                 1.0202
 IR Inten    --     96.4440                83.3184                 2.4460

                     34                     35                     36
                      A                      A                      A
 Frequencies --   1177.3585              1219.6186              1292.0889
 Red. masses --      1.6994                 3.5375                 1.3308
 Frc consts  --      1.3880                 3.1002                 1.3090
 IR Inten    --    119.2298                18.3996               107.2303

                     37                     38                     39
                      A                      A                      A
 Frequencies --   1332.9691              1347.4577              1377.0295
 Red. masses --      2.5437                 1.4593                 3.1775
 Frc consts  --      2.6629                 1.5611                 3.5500
 IR Inten    --    545.6967               183.4722               404.0001

                     40                     41                     42
                      A                      A                      A
 Frequencies --   1416.6986              1451.3124              1456.5379
 Red. masses --      1.3126                 1.2026                 1.2407
 Frc consts  --      1.5522                 1.4924                 1.5508
 IR Inten    --    148.8824                21.9102                37.9212

                     43                     44                     45
                      A                      A                      A
 Frequencies --   1472.4731              1473.6882              1497.1800
 Red. masses --      1.0498                 1.0412                 1.0385
 Frc consts  --      1.3410                 1.3323                 1.3715
 IR Inten    --     11.2508                13.9417                29.6543

                     46                     47                     48
                      A                      A                      A
 Frequencies --   1500.4970              1502.3428              1508.6285
 Red. masses --      1.0719                 1.0415                 1.0820
 Frc consts  --      1.4219                 1.3850                 1.4509
 IR Inten    --     45.5677                41.6645                29.4627

                     49                     50                     51
                      A                      A                      A
 Frequencies --   1556.2802              1624.1136              1627.9684
 Red. masses --      1.9872                 4.9949                 1.1003
 Frc consts  --      2.8358                 7.7626                 1.7181
 IR Inten    --    493.6747               855.8263                46.7644

                     52                     53                     54
                      A                      A                      A
 Frequencies --   3025.5964              3043.4144              3080.8414
 Red. masses --      1.0450                 1.0379                 1.0962
 Frc consts  --      5.6364                 5.6638                 6.1301
 IR Inten    --    103.6065                92.6597                55.8114

                     55                     56                     57
                      A                      A                      A
 Frequencies --   3085.5333              3102.1966              3147.5722
 Red. masses --      1.0323                 1.1011                 1.0962
 Frc consts  --      5.7908                 6.2431                 6.3990
 IR Inten    --     16.1573                52.1769                17.4783

                     58                     59                     60
                      A                      A                      A
 Frequencies --   3150.9649              3175.7602              3188.8472
 Red. masses --      1.1017                 1.1056                 1.1072
 Frc consts  --      6.4446                 6.5700                 6.6337
 IR Inten    --     27.7362                 0.8663                 5.7303

                     61                     62                     63
                      A                      A                      A
 Frequencies --   3490.8951              3568.6186              3712.3330
 Red. masses --      1.0511                 1.0969                 1.0769
 Frc consts  --      7.5468                 8.2300                 8.7445
 IR Inten    --     69.1938                76.3409                62.1407

 - Thermochemistry -
 -------------------
 Temperature   298.150 Kelvin.  Pressure   1.00000 Atm.
 Atom     1 has atomic number  6 and mass  12.00000

 Molecular mass:   241.98215 amu.
 Principal axes and moments of inertia in atomic units:
                           1         2         3
     Eigenvalues --  2225.108693142.141023949.74440
           X            0.99665   0.07782   0.02510
           Y           -0.07690   0.99640  -0.03566
           Z           -0.02778   0.03361   0.99905
 This molecule is an asymmetric top.
 Rotational symmetry number  1.
 Warning -- assumption of classical behavior for rotation
           may cause significant error
 Rotational temperatures (Kelvin)      0.03893     0.02757     0.02193
 Rotational constants (GHZ):           0.81108     0.57437     0.45693
    1 imaginary frequencies ignored.
 Zero-point vibrational energy     483414.0 (Joules/Mol)
                                  115.53873 (Kcal/Mol)
 Warning -- explicit consideration of  20 degrees of freedom as
           vibrations may cause significant error
 Vibrational temperatures:     40.08    77.97   121.67   141.19   175.11
          (Kelvin)            189.98   236.66   241.28   270.32   316.86
                              319.89   332.61   400.95   449.65   492.45
                              526.35   560.44   599.56   703.43   772.95
                              954.82  1036.58  1116.10  1174.18  1277.07
                             1430.08  1504.39  1516.74  1527.07  1551.73
                             1608.78  1660.96  1693.96  1754.76  1859.03
                             1917.85  1938.69  1981.24  2038.31  2088.11
                             2095.63  2118.56  2120.31  2154.11  2158.88
                             2161.54  2170.58  2239.14  2336.74  2342.28
                             4353.16  4378.79  4432.64  4439.39  4463.37
                             4528.65  4533.54  4569.21  4588.04  5022.62
                             5134.45  5341.22

 Zero-point correction=                           0.184123 (Hartree/Particle)
 Thermal correction to Energy=                    0.198305
 Thermal correction to Enthalpy=                  0.199249
 Thermal correction to Gibbs Free Energy=         0.141622
 Sum of electronic and zero-point Energies=          -3454.815198
 Sum of electronic and thermal Energies=             -3454.801016
 Sum of electronic and thermal Enthalpies=           -3454.800072
 Sum of electronic and thermal Free Energies=        -3454.857699

                     E (Thermal)             CV                S
                      KCal/Mol        Cal/Mol-Kelvin    Cal/Mol-Kelvin
 Total                  124.438             48.094            121.287
 Electronic               0.000              0.000              0.000
 Translational            0.889              2.981             42.352
 Rotational               0.889              2.981             31.691
 Vibrational            122.661             42.132             47.245
 Vibration     1          0.593              1.984              5.976
 Vibration     2          0.596              1.976              4.658
 Vibration     3          0.601              1.960              3.782
 Vibration     4          0.604              1.950              3.491
 Vibration     5          0.609              1.931              3.073
 Vibration     6          0.612              1.921              2.916
 Vibration     7          0.623              1.886              2.498
 Vibration     8          0.624              1.882              2.461
 Vibration     9          0.633              1.856              2.249
 Vibration    10          0.647              1.810              1.957
 Vibration    11          0.648              1.807              1.940
 Vibration    12          0.653              1.793              1.870
 Vibration    13          0.679              1.713              1.542
 Vibration    14          0.701              1.650              1.349
 Vibration    15          0.721              1.591              1.202
 Vibration    16          0.739              1.543              1.097
 Vibration    17          0.757              1.493              1.002
 Vibration    18          0.780              1.434              0.903
 Vibration    19          0.845              1.275              0.686
 Vibration    20          0.892              1.168              0.571

 Optimization completed.
    -- Stationary point found.
 Normal termination of Gaussian 16 at Sun Feb 28 14:23:27 2021.
