 Gaussian 16, Revision A.03,
 Gaussian 16:  ES64L-G16RevA.03 25-Dec-2016

 ----------------------------------------------------------------------
 # wB97XD def2tzvp, opt=(ts, noeigen, calcfc, maxcycles=70, maxstep=8),
  freq=noraman, scrf=(iefpcm, solvent=water)
 ----------------------------------------------------------------------

 ------------------------
 1_iteration/TS-964-1.out
 ------------------------
 Symbolic Z-matrix:
 Charge =  0 Multiplicity = 1

 SCF Done:  E(RwB97XD) =  -1552.59413012     A.U. after   15 cycles
 SCF Done:  E(RwB97XD) =  -1552.59658725     A.U. after   13 cycles
 SCF Done:  E(RwB97XD) =  -1552.59927151     A.U. after   13 cycles
 SCF Done:  E(RwB97XD) =  -1552.60190758     A.U. after   13 cycles
 SCF Done:  E(RwB97XD) =  -1552.60437016     A.U. after   13 cycles
 SCF Done:  E(RwB97XD) =  -1552.60659028     A.U. after   13 cycles
 SCF Done:  E(RwB97XD) =  -1552.60679448     A.U. after   12 cycles
 SCF Done:  E(RwB97XD) =  -1552.60689443     A.U. after   12 cycles
 SCF Done:  E(RwB97XD) =  -1552.60658165     A.U. after   12 cycles
 SCF Done:  E(RwB97XD) =  -1552.60640380     A.U. after   12 cycles
 SCF Done:  E(RwB97XD) =  -1552.60693525     A.U. after    7 cycles
 SCF Done:  E(RwB97XD) =  -1552.60693505     A.U. after    7 cycles
 SCF Done:  E(RwB97XD) =  -1552.60693492     A.U. after    9 cycles
 SCF Done:  E(RwB97XD) =  -1552.60691914     A.U. after   11 cycles
 SCF Done:  E(RwB97XD) =  -1552.60693525     A.U. after   11 cycles
 SCF Done:  E(RwB97XD) =  -1552.60693542     A.U. after    8 cycles
 SCF Done:  E(RwB97XD) =  -1552.60693485     A.U. after   10 cycles
 SCF Done:  E(RwB97XD) =  -1552.60693547     A.U. after    9 cycles
 SCF Done:  E(RwB97XD) =  -1552.60693544     A.U. after    7 cycles
 Optimization completed.
    -- Stationary point found.
 Normal termination of Gaussian 16 at Sun Feb 28 21:07:55 2021.

 ---------------------------------------------------------------------
 #N Geom=AllCheck Guess=TCheck SCRF=Check GenChk RwB97XD/def2TZVP Freq
 ---------------------------------------------------------------------

 Structure from the checkpoint file:  "/beegfs/scratch/user/q/tla25/Gau-37878.chk"
 ------------------------
 1_iteration/TS-964-1.out
 ------------------------
 Charge =  0 Multiplicity = 1

                         Standard orientation:
 ---------------------------------------------------------------------
 Center     Atomic      Atomic             Coordinates (Angstroms)
 Number     Number       Type             X           Y           Z
 ---------------------------------------------------------------------
      1          6           0       -0.091652    0.261357   -0.237995
      2          6           0       -0.735534    1.557363   -0.298748
      3          8           0       -0.167280    2.612795   -0.512424
      4          6           0       -0.821002   -0.914925   -0.232243
      5          6           0       -1.125142   -0.747736    2.582814
      6          1           0       -0.597721    0.189322    2.404007
      7          1           0       -1.754141   -0.634727    3.465736
      8          1           0       -0.398061   -1.538968    2.755208
      9          7           0       -1.909991   -1.059355    1.401520
     10          1           0       -2.625256   -0.361363    1.231343
     11          1           0       -2.337728   -1.977003    1.438913
     12         17           0        0.071554   -2.417402   -0.094861
     13         17           0       -2.202314   -1.150755   -1.340069
     14          6           0        1.395706    0.272082   -0.129906
     15          6           0        2.184265   -0.146955   -1.200061
     16          6           0        3.568642   -0.120575   -1.121702
     17          6           0        4.191808    0.340000    0.029424
     18          6           0        3.419882    0.774995    1.097404
     19          6           0        2.035815    0.739835    1.015702
     20          1           0        1.702298   -0.499968   -2.103776
     21          1           0        4.161566   -0.454760   -1.964084
     22          1           0        5.272475    0.363543    0.092546
     23          1           0        3.896064    1.140291    1.998864
     24          1           0        1.443333    1.084712    1.854194
     25          8           0       -2.060833    1.516218   -0.039110
     26          6           0       -2.767605    2.748508   -0.127706
     27          1           0       -3.806698    2.508372    0.081102
     28          1           0       -2.393648    3.462828    0.605404
     29          1           0       -2.675810    3.176082   -1.125915
 ---------------------------------------------------------------------

 SCF Done:  E(RwB97XD) =  -1552.60693544     A.U. after    1 cycles

 The electronic state is 1-A.
 Alpha  occ. eigenvalues -- -101.71385-101.70518 -19.29205 -19.22254 -14.48570
 Alpha  occ. eigenvalues --  -10.45163 -10.40812 -10.33074 -10.31798 -10.30229
 Alpha  occ. eigenvalues --  -10.28842 -10.28804 -10.28756 -10.28698 -10.28635
 Alpha  occ. eigenvalues --  -10.28314  -9.59969  -9.59110  -7.34643  -7.33777
 Alpha  occ. eigenvalues --   -7.33737  -7.33695  -7.32874  -7.32845  -1.20638
 Alpha  occ. eigenvalues --   -1.10987  -1.05155  -1.00677  -0.96485  -0.93312
 Alpha  occ. eigenvalues --   -0.89454  -0.84872  -0.84218  -0.80257  -0.79065
 Alpha  occ. eigenvalues --   -0.71540  -0.70238  -0.69092  -0.64814  -0.63699
 Alpha  occ. eigenvalues --   -0.61432  -0.59752  -0.58280  -0.57402  -0.57018
 Alpha  occ. eigenvalues --   -0.55163  -0.54546  -0.53943  -0.53389  -0.52014
 Alpha  occ. eigenvalues --   -0.50687  -0.49415  -0.48382  -0.48302  -0.47338
 Alpha  occ. eigenvalues --   -0.46295  -0.44914  -0.43089  -0.42657  -0.42403
 Alpha  occ. eigenvalues --   -0.41628  -0.39904  -0.38468  -0.38312  -0.36306
 Alpha  occ. eigenvalues --   -0.33559  -0.33411  -0.28705
 Alpha virt. eigenvalues --    0.02421   0.04810   0.05608   0.07018   0.09575
 Alpha virt. eigenvalues --    0.10724   0.12982   0.13778   0.14641   0.15998
 Alpha virt. eigenvalues --    0.16085   0.16425   0.17037   0.18171   0.18365

 Mulliken charges:
               1
     1  C   -0.328321
     2  C    0.413548
     3  O   -0.472211
     4  C    0.200487
     5  C   -0.276916
     6  H    0.133304
     7  H    0.162930
     8  H    0.155604
     9  N   -0.346761
    10  H    0.284731
    11  H    0.289368
    12  Cl  -0.047325
    13  Cl  -0.078271
    14  C    0.229280
    15  C   -0.250595
    16  C   -0.138934
    17  C   -0.145064
    18  C   -0.149720
    19  C   -0.242131
    20  H    0.143018
    21  H    0.140493
    22  H    0.142906
    23  H    0.139943
    24  H    0.147260
    25  O   -0.315293
    26  C   -0.199375
    27  H    0.141776
    28  H    0.132300
    29  H    0.133968
 Sum of Mulliken charges =  -0.00000

 Dipole moment (field-independent basis, Debye):
    X=             -4.8496    Y=             -3.4792    Z=              5.5441  Tot=              8.1463
 Quadrupole moment (field-independent basis, Debye-Ang):
   XX=            -89.2884   YY=           -114.8323   ZZ=            -97.0556
   XY=             -3.5522   XZ=             -7.9186   YZ=              0.2656

  Exact polarizability: 272.428  10.716 225.880  -4.580   5.721 222.555
 Approx polarizability: 215.314   7.669 187.456  -2.269   6.496 189.840

 ******    1 imaginary frequencies (negative Signs) ******

                      1                      2                      3
                      A                      A                      A
 Frequencies --   -365.5189                28.6508                55.8018
 Red. masses --      5.7581                 3.5636                 3.8468
 Frc consts  --      0.4533                 0.0017                 0.0071
 IR Inten    --    713.4703                 0.1033                 9.2486

                      4                      5                      6
                      A                      A                      A
 Frequencies --     59.1643                71.9648                77.8424
 Red. masses --      2.8610                 5.0008                 4.9510
 Frc consts  --      0.0059                 0.0153                 0.0177
 IR Inten    --      0.2464                 5.1636                 1.1129

                      7                      8                      9
                      A                      A                      A
 Frequencies --     96.3393               123.2300               145.9813
 Red. masses --      3.5307                 2.9655                 1.8454
 Frc consts  --      0.0193                 0.0265                 0.0232
 IR Inten    --      2.5381                 5.7964                 0.3823

                     10                     11                     12
                      A                      A                      A
 Frequencies --    156.2464               168.2089               188.9371
 Red. masses --      1.2584                 2.8777                 3.7980
 Frc consts  --      0.0181                 0.0480                 0.0799
 IR Inten    --      3.1159                 1.3109                11.4784

                     13                     14                     15
                      A                      A                      A
 Frequencies --    222.3746               238.3001               253.6055
 Red. masses --      3.4298                 5.8485                 6.0113
 Frc consts  --      0.0999                 0.1957                 0.2278
 IR Inten    --      5.4202                 1.7593                 4.7544

                     16                     17                     18
                      A                      A                      A
 Frequencies --    281.4808               291.5367               323.8716
 Red. masses --      4.8801                 5.4808                 7.4013
 Frc consts  --      0.2278                 0.2745                 0.4574
 IR Inten    --     22.2984                14.0548                26.7592

                     19                     20                     21
                      A                      A                      A
 Frequencies --    361.4181               370.2135               423.9459
 Red. masses --      7.0843                 5.3050                 2.8716
 Frc consts  --      0.5452                 0.4284                 0.3041
 IR Inten    --      6.2654                32.6603                 0.1090

                     22                     23                     24
                      A                      A                      A
 Frequencies --    448.7108               526.9959               549.4509
 Red. masses --     10.8186                 3.5037                 8.6891
 Frc consts  --      1.2834                 0.5733                 1.5456
 IR Inten    --     20.3312                29.7498                83.2599

                     25                     26                     27
                      A                      A                      A
 Frequencies --    628.1386               637.7774               659.9593
 Red. masses --      1.6706                 5.2268                 5.1569
 Frc consts  --      0.3884                 1.2526                 1.3233
 IR Inten    --      9.8413                 5.7264                49.2991

                     28                     29                     30
                      A                      A                      A
 Frequencies --    725.2087               737.8108               781.2312
 Red. masses --      1.8208                 2.6359                 4.7977
 Frc consts  --      0.5642                 0.8454                 1.7252
 IR Inten    --     48.1327               177.1185                87.2772

                     31                     32                     33
                      A                      A                      A
 Frequencies --    806.0753               815.4678               876.7198
 Red. masses --      8.3360                 3.3714                 1.2498
 Frc consts  --      3.1912                 1.3209                 0.5660
 IR Inten    --     53.1437               104.5673                 0.4994

                     34                     35                     36
                      A                      A                      A
 Frequencies --    894.8797               941.9244               969.9200
 Red. masses --      5.4397                 2.4910                 2.2390
 Frc consts  --      2.5666                 1.3021                 1.2410
 IR Inten    --    124.2267                 6.6891                 5.8368

                     37                     38                     39
                      A                      A                      A
 Frequencies --    988.3489              1011.5182              1027.1575
 Red. masses --      1.1157                 1.3783                 2.1166
 Frc consts  --      0.6421                 0.8309                 1.3157
 IR Inten    --     81.7014                 1.2176                 5.4874

                     40                     41                     42
                      A                      A                      A
 Frequencies --   1027.4729              1028.9450              1061.3942
 Red. masses --      2.1266                 1.1405                 2.4068
 Frc consts  --      1.3228                 0.7114                 1.5975
 IR Inten    --      7.6945                63.6525                21.2667

                     43                     44                     45
                      A                      A                      A
 Frequencies --   1092.3024              1105.1611              1112.2872
 Red. masses --      4.6774                 4.6201                 1.5920
 Frc consts  --      3.2881                 3.3247                 1.1605
 IR Inten    --     38.2598               103.8684                 9.5106

                     46                     47                     48
                      A                      A                      A
 Frequencies --   1182.2212              1182.8333              1200.6790
 Red. masses --      1.1331                 1.2819                 1.4412
 Frc consts  --      0.9331                 1.0567                 1.2241
 IR Inten    --      0.1458                 1.6072                36.3609

                     49                     50                     51
                      A                      A                      A
 Frequencies --   1210.0127              1215.0406              1239.0669
 Red. masses --      1.1247                 1.5488                 4.7918
 Frc consts  --      0.9702                 1.3472                 4.3345
 IR Inten    --      0.0436                21.2921               438.4609

                     52                     53                     54
                      A                      A                      A
 Frequencies --   1308.6637              1327.8247              1346.0301
 Red. masses --      4.5422                 5.1196                 1.4070
 Frc consts  --      4.5833                 5.3183                 1.5019
 IR Inten    --     66.9315               699.1245                63.0688

                     55                     56                     57
                      A                      A                      A
 Frequencies --   1359.7999              1438.3567              1463.2687
 Red. masses --      1.4303                 2.4323                 1.5984
 Frc consts  --      1.5582                 2.9648                 2.0164
 IR Inten    --      2.6777               475.3265               178.5130

                     58                     59                     60
                      A                      A                      A
 Frequencies --   1481.3318              1482.3127              1488.4955
 Red. masses --      1.2610                 1.0453                 2.0875
 Frc consts  --      1.6303                 1.3533                 2.7250
 IR Inten    --     38.5870                13.8671                 8.0213

                     61                     62                     63
                      A                      A                      A
 Frequencies --   1489.9293              1496.1361              1498.6923
 Red. masses --      1.0626                 1.0600                 1.0536
 Frc consts  --      1.3898                 1.3980                 1.3943
 IR Inten    --     43.2486                16.2941                23.5986

                     64                     65                     66
                      A                      A                      A
 Frequencies --   1546.8896              1632.4021              1646.8450
 Red. masses --      2.4919                 1.0973                 5.7322
 Frc consts  --      3.5132                 1.7228                 9.1595
 IR Inten    --     75.5819                82.3438                 2.3141

                     67                     68                     69
                      A                      A                      A
 Frequencies --   1672.0525              1713.0493              3067.4485
 Red. masses --      5.9972                11.1252                 1.0305
 Frc consts  --      9.8787                19.2352                 5.7127
 IR Inten    --     14.1598               921.9329                56.2030

                     70                     71                     72
                      A                      A                      A
 Frequencies --   3070.6673              3145.8812              3146.8592
 Red. masses --      1.0328                 1.1071                 1.1040
 Frc consts  --      5.7374                 6.4552                 6.4411
 IR Inten    --     32.6712                32.3013                 9.6088

                     73                     74                     75
                      A                      A                      A
 Frequencies --   3166.7518              3177.2388              3190.5828
 Red. masses --      1.1054                 1.1060                 1.0856
 Frc consts  --      6.5315                 6.5780                 6.5112
 IR Inten    --     12.4040                20.6823                 4.7727

                     76                     77                     78
                      A                      A                      A
 Frequencies --   3195.1977              3204.0214              3210.4906
 Red. masses --      1.0880                 1.0917                 1.0953
 Frc consts  --      6.5443                 6.6028                 6.6516
 IR Inten    --      0.3097                18.5759                48.7731

                     79                     80                     81
                      A                      A                      A
 Frequencies --   3220.5373              3522.7203              3614.3067
 Red. masses --      1.0989                 1.0501                 1.0977
 Frc consts  --      6.7151                 7.6779                 8.4486
 IR Inten    --     17.0855                64.8528                84.4007

 - Thermochemistry -
 -------------------
 Temperature   298.150 Kelvin.  Pressure   1.00000 Atm.
 Atom     1 has atomic number  6 and mass  12.00000

 Molecular mass:   261.03233 amu.
 Principal axes and moments of inertia in atomic units:
                           1         2         3
     Eigenvalues --  3166.069595136.306256283.84915
           X            0.99937  -0.02970  -0.01964
           Y            0.02939   0.99944  -0.01614
           Z            0.02011   0.01555   0.99968
 This molecule is an asymmetric top.
 Rotational symmetry number  1.
 Warning -- assumption of classical behavior for rotation
           may cause significant error
 Rotational temperatures (Kelvin)      0.02736     0.01686     0.01378
 Rotational constants (GHZ):           0.57003     0.35137     0.28720
    1 imaginary frequencies ignored.
 Zero-point vibrational energy     591844.1 (Joules/Mol)
                                  141.45414 (Kcal/Mol)
 Warning -- explicit consideration of  23 degrees of freedom as
           vibrations may cause significant error
 Vibrational temperatures:     41.22    80.29    85.12   103.54   112.00
          (Kelvin)            138.61   177.30   210.03   224.80   242.02
                              271.84   319.95   342.86   364.88   404.99
                              419.46   465.98   520.00   532.65   609.96
                              645.59   758.23   790.54   903.75   917.62
                              949.53  1043.41  1061.55  1124.02  1159.76
                             1173.28  1261.40  1287.53  1355.22  1395.50
                             1422.01  1455.35  1477.85  1478.30  1480.42
                             1527.11  1571.58  1590.08  1600.33  1700.95
                             1701.83  1727.51  1740.94  1748.17  1782.74
                             1882.88  1910.44  1936.64  1956.45  2069.47
                             2105.32  2131.31  2132.72  2141.61  2143.68
                             2152.61  2156.28  2225.63  2348.66  2369.44
                             2405.71  2464.70  4413.37  4418.01  4526.22
                             4527.63  4556.25  4571.34  4590.54  4597.18
                             4609.87  4619.18  4633.63  5068.41  5200.18

 Zero-point correction=                           0.225422 (Hartree/Particle)
 Thermal correction to Energy=                    0.242182
 Thermal correction to Enthalpy=                  0.243126
 Thermal correction to Gibbs Free Energy=         0.179476
 Sum of electronic and zero-point Energies=          -1552.381514
 Sum of electronic and thermal Energies=             -1552.364754
 Sum of electronic and thermal Enthalpies=           -1552.363810
 Sum of electronic and thermal Free Energies=        -1552.427459

                     E (Thermal)             CV                S
                      KCal/Mol        Cal/Mol-Kelvin    Cal/Mol-Kelvin
 Total                  151.971             59.594            133.962
 Electronic               0.000              0.000              0.000
 Translational            0.889              2.981             42.578
 Rotational               0.889              2.981             32.991
 Vibrational            150.194             53.632             58.393
 Vibration     1          0.593              1.984              5.921
 Vibration     2          0.596              1.975              4.600
 Vibration     3          0.597              1.974              4.485
 Vibration     4          0.598              1.967              4.099
 Vibration     5          0.599              1.964              3.945
 Vibration     6          0.603              1.952              3.527
 Vibration     7          0.610              1.930              3.049
 Vibration     8          0.617              1.907              2.724
 Vibration     9          0.620              1.896              2.595
 Vibration    10          0.625              1.882              2.455
 Vibration    11          0.633              1.855              2.238
 Vibration    12          0.648              1.807              1.940
 Vibration    13          0.656              1.782              1.816
 Vibration    14          0.665              1.757              1.705
 Vibration    15          0.681              1.708              1.525
 Vibration    16          0.687              1.689              1.465
 Vibration    17          0.708              1.628              1.290
 Vibration    18          0.736              1.552              1.116
 Vibration    19          0.742              1.533              1.079
 Vibration    20          0.786              1.418              0.879
 Vibration    21          0.808              1.364              0.800
 Vibration    22          0.882              1.190              0.594
 Vibration    23          0.905              1.141              0.545

 Optimization completed.
    -- Stationary point found.
 Normal termination of Gaussian 16 at Sun Feb 28 22:16:18 2021.
