 Gaussian 16, Revision A.03,
 Gaussian 16:  ES64L-G16RevA.03 25-Dec-2016

 ----------------------------------------------------------------------
 # wB97XD def2tzvp, opt=(ts, noeigen, calcfc, maxcycles=70, maxstep=5),
  freq=noraman, scrf=(iefpcm, solvent=water)
 ----------------------------------------------------------------------

 ------------------------
 2_iteration/TS-956-2.out
 ------------------------
 Symbolic Z-matrix:
 Charge =  0 Multiplicity = 1

 SCF Done:  E(RwB97XD) =  -3895.16119356     A.U. after   15 cycles
 SCF Done:  E(RwB97XD) =  -3895.16119358     A.U. after    6 cycles
 Optimization completed.
    -- Stationary point found.
 Normal termination of Gaussian 16 at Sun Feb 28 19:06:45 2021.

 ---------------------------------------------------------------------
 #N Geom=AllCheck Guess=TCheck SCRF=Check GenChk RwB97XD/def2TZVP Freq
 ---------------------------------------------------------------------

 Structure from the checkpoint file:  "/beegfs/scratch/user/q/tla25/Gau-64870.chk"
 ------------------------
 2_iteration/TS-956-2.out
 ------------------------
 Charge =  0 Multiplicity = 1

                         Standard orientation:
 ---------------------------------------------------------------------
 Center     Atomic      Atomic             Coordinates (Angstroms)
 Number     Number       Type             X           Y           Z
 ---------------------------------------------------------------------
      1          6           0       -0.410316    0.847329   -0.399250
      2          6           0       -1.773905    0.362520   -0.287994
      3          8           0       -2.756842    0.915926   -0.733752
      4          6           0        0.718249    0.118947   -0.069191
      5          6           0        0.517455    1.014446    2.615221
      6          1           0       -0.354299    1.506097    2.181722
      7          1           0        0.322726    0.818905    3.669680
      8          1           0        1.380264    1.670829    2.523501
      9          7           0        0.765314   -0.216023    1.880529
     10          1           0        1.642011   -0.657803    2.132199
     11          1           0        0.011140   -0.882933    2.000887
     12         17           0        2.269997    0.885056   -0.262334
     13         35           0        0.846771   -1.753078   -0.593652
     14         17           0       -0.284972    2.534570   -0.819844
     15          8           0       -1.851226   -0.775270    0.424606
     16          6           0       -3.138643   -1.379641    0.524801
     17          1           0       -3.831825   -0.720772    1.046416
     18          1           0       -3.532342   -1.611246   -0.464298
     19          1           0       -2.989778   -2.293671    1.092674
 ---------------------------------------------------------------------

 SCF Done:  E(RwB97XD) =  -3895.16119358     A.U. after    1 cycles

 The electronic state is 1-A.
 Alpha  occ. eigenvalues -- -483.14259-101.72080-101.69810 -62.69102 -56.48244
 Alpha  occ. eigenvalues --  -56.47851 -56.47839 -19.29939 -19.23081 -14.48940
 Alpha  occ. eigenvalues --  -10.45423 -10.41911 -10.33421 -10.33413 -10.31990
 Alpha  occ. eigenvalues --   -9.60649  -9.58320  -8.83208  -7.35340  -7.34412
 Alpha  occ. eigenvalues --   -7.34363  -7.32997  -7.32082  -7.32075  -6.65436
 Alpha  occ. eigenvalues --   -6.64190  -6.64153  -2.75805  -2.75456  -2.75427
 Alpha  occ. eigenvalues --   -2.74420  -2.74420  -1.21550  -1.11998  -1.05156
 Alpha  occ. eigenvalues --   -1.00978  -0.95735  -0.90359  -0.85714  -0.80349
 Alpha  occ. eigenvalues --   -0.79211  -0.71411  -0.65073  -0.63804  -0.60467
 Alpha  occ. eigenvalues --   -0.58740  -0.58105  -0.57521  -0.55025  -0.54417
 Alpha  occ. eigenvalues --   -0.52750  -0.49654  -0.48988  -0.48503  -0.47542
 Alpha  occ. eigenvalues --   -0.45297  -0.43065  -0.42569  -0.41252  -0.40276
 Alpha  occ. eigenvalues --   -0.39237  -0.37803  -0.37651  -0.36407  -0.28937
 Alpha virt. eigenvalues --    0.01130   0.03867   0.06647   0.10362   0.13389
 Alpha virt. eigenvalues --    0.13805   0.14595   0.15811   0.16454   0.17408
 Alpha virt. eigenvalues --    0.19045   0.20063   0.20194   0.20805   0.21020

 Mulliken charges:
               1
     1  C   -0.283220
     2  C    0.418156
     3  O   -0.453767
     4  C    0.194594
     5  C   -0.289436
     6  H    0.156037
     7  H    0.161186
     8  H    0.157728
     9  N   -0.360261
    10  H    0.293996
    11  H    0.288887
    12  Cl  -0.027290
    13  Br  -0.053392
    14  Cl  -0.123981
    15  O   -0.304597
    16  C   -0.194893
    17  H    0.136763
    18  H    0.137968
    19  H    0.145521
 Sum of Mulliken charges =  -0.00000

 Dipole moment (field-independent basis, Debye):
    X=              2.9034    Y=             -4.4822    Z=              7.7453  Tot=              9.4080
 Quadrupole moment (field-independent basis, Debye-Ang):
   XX=            -93.4769   YY=            -92.9916   ZZ=            -80.3453
   XY=             10.1492   XZ=             -1.5815   YZ=              2.3020

  Exact polarizability: 186.546  -6.015 181.899  13.824  -7.686 154.951
 Approx polarizability: 151.373  -4.750 152.839  10.234  -7.799 131.395

 ******    1 imaginary frequencies (negative Signs) ******

                      1                      2                      3
                      A                      A                      A
 Frequencies --   -367.8605                54.7779                69.8724
 Red. masses --      5.8645                 4.7764                 5.8049
 Frc consts  --      0.4676                 0.0084                 0.0167
 IR Inten    --    700.7666                 1.6673                 2.8539

                      4                      5                      6
                      A                      A                      A
 Frequencies --     83.7389                98.9562               121.7495
 Red. masses --      2.7599                 4.5599                 3.6336
 Frc consts  --      0.0114                 0.0263                 0.0317
 IR Inten    --      2.8722                 3.7128                 2.9942

                      7                      8                      9
                      A                      A                      A
 Frequencies --    145.5950               147.9274               175.3495
 Red. masses --      1.8097                 1.3812                 2.1437
 Frc consts  --      0.0226                 0.0178                 0.0388
 IR Inten    --      2.6759                 2.1510                 0.4627

                     10                     11                     12
                      A                      A                      A
 Frequencies --    182.1384               220.4938               223.0520
 Red. masses --      3.2229                 7.2386                13.5784
 Frc consts  --      0.0630                 0.2073                 0.3980
 IR Inten    --      5.3123                 2.1315                 3.7666

                     13                     14                     15
                      A                      A                      A
 Frequencies --    257.2341               268.9128               296.7756
 Red. masses --      4.1492                 5.3503                 5.9676
 Frc consts  --      0.1618                 0.2280                 0.3097
 IR Inten    --     12.1991                23.4857                 2.7464

                     16                     17                     18
                      A                      A                      A
 Frequencies --    330.0754               356.3823               442.9306
 Red. masses --      6.9439                 8.0542                11.0188
 Frc consts  --      0.4457                 0.6027                 1.2737
 IR Inten    --     29.7234                12.3845                 6.3557

                     19                     20                     21
                      A                      A                      A
 Frequencies --    512.5640               633.7701               739.8930
 Red. masses --      8.1674                 1.4747                 5.1498
 Frc consts  --      1.2642                 0.3490                 1.6610
 IR Inten    --    109.8441                 7.3319               131.6746

                     22                     23                     24
                      A                      A                      A
 Frequencies --    765.0652               788.1416               889.3098
 Red. masses --      8.6381                11.2719                 6.1438
 Frc consts  --      2.9790                 4.1253                 2.8628
 IR Inten    --    166.2183                61.8970                87.5046

                     25                     26                     27
                      A                      A                      A
 Frequencies --    955.0413               991.3270              1031.7266
 Red. masses --      6.7831                 1.0964                 1.1185
 Frc consts  --      3.6452                 0.6348                 0.7014
 IR Inten    --     21.1251                62.7073                95.3352

                     28                     29                     30
                      A                      A                      A
 Frequencies --   1084.0222              1123.5507              1182.5342
 Red. masses --      4.8429                 8.4056                 1.2812
 Frc consts  --      3.3530                 6.2518                 1.0555
 IR Inten    --     38.8484               162.3090                 2.0283

                     31                     32                     33
                      A                      A                      A
 Frequencies --   1205.0732              1219.3964              1297.8656
 Red. masses --      1.4234                 1.5597                 7.1788
 Frc consts  --      1.2179                 1.3664                 7.1246
 IR Inten    --     25.8566                75.7016               834.3594

                     34                     35                     36
                      A                      A                      A
 Frequencies --   1342.4938              1416.9263              1462.2497
 Red. masses --      1.3297                 6.1462                 1.2758
 Frc consts  --      1.4120                 7.2703                 1.6073
 IR Inten    --      0.5373               720.9891                37.5451

                     37                     38                     39
                      A                      A                      A
 Frequencies --   1479.9643              1482.9929              1489.7863
 Red. masses --      1.1984                 1.0438                 1.0429
 Frc consts  --      1.5465                 1.3525                 1.3638
 IR Inten    --     36.2839                13.8200                22.6941

                     40                     41                     42
                      A                      A                      A
 Frequencies --   1494.7161              1501.9386              1635.1290
 Red. masses --      1.0608                 1.0333                 1.0940
 Frc consts  --      1.3964                 1.3733                 1.7233
 IR Inten    --     24.6175                11.2040                73.4895

                     43                     44                     45
                      A                      A                      A
 Frequencies --   1734.3095              3067.2613              3071.0843
 Red. masses --     11.5750                 1.0333                 1.0304
 Frc consts  --     20.5128                 5.7274                 5.7257
 IR Inten    --    971.7542                29.6878                48.7024

                     46                     47                     48
                      A                      A                      A
 Frequencies --   3141.3887              3151.6714              3168.3870
 Red. masses --      1.1045                 1.1074                 1.1052
 Frc consts  --      6.4220                 6.4807                 6.5367
 IR Inten    --     10.3483                28.3088                11.4721

                     49                     50                     51
                      A                      A                      A
 Frequencies --   3183.7643              3521.9714              3612.0194
 Red. masses --      1.1062                 1.0500                 1.0976
 Frc consts  --      6.6066                 7.6737                 8.4369
 IR Inten    --     16.8020                58.1765                75.8348

 - Thermochemistry -
 -------------------
 Temperature   298.150 Kelvin.  Pressure   1.00000 Atm.
 Atom     1 has atomic number  6 and mass  12.00000

 Molecular mass:   262.91155 amu.
 Principal axes and moments of inertia in atomic units:
                           1         2         3
     Eigenvalues --  2873.022173145.668784323.50279
           X            0.92022   0.39117   0.01326
           Y           -0.39116   0.92032  -0.00320
           Z           -0.01345  -0.00224   0.99991
 This molecule is an asymmetric top.
 Rotational symmetry number  1.
 Warning -- assumption of classical behavior for rotation
           may cause significant error
 Rotational temperatures (Kelvin)      0.03015     0.02753     0.02003
 Rotational constants (GHZ):           0.62817     0.57372     0.41743
    1 imaginary frequencies ignored.
 Zero-point vibrational energy     352020.9 (Joules/Mol)
                                   84.13501 (Kcal/Mol)
 Warning -- explicit consideration of  18 degrees of freedom as
           vibrations may cause significant error
 Vibrational temperatures:     78.81   100.53   120.48   142.38   175.17
          (Kelvin)            209.48   212.83   252.29   262.06   317.24
                              320.92   370.10   386.91   426.99   474.90
                              512.75   637.28   737.47   911.85  1064.54
                             1100.76  1133.96  1279.52  1374.09  1426.30
                             1484.42  1559.67  1616.54  1701.40  1733.83
                             1754.44  1867.34  1931.55  2038.64  2103.85
                             2129.34  2133.70  2143.47  2150.56  2160.95
                             2352.59  2495.28  4413.10  4418.61  4519.76
                             4534.55  4558.60  4580.73  5067.33  5196.89

 Zero-point correction=                           0.134078 (Hartree/Particle)
 Thermal correction to Energy=                    0.147597
 Thermal correction to Enthalpy=                  0.148541
 Thermal correction to Gibbs Free Energy=         0.092338
 Sum of electronic and zero-point Energies=          -3895.027116
 Sum of electronic and thermal Energies=             -3895.013597
 Sum of electronic and thermal Enthalpies=           -3895.012653
 Sum of electronic and thermal Free Energies=        -3895.068855

                     E (Thermal)             CV                S
                      KCal/Mol        Cal/Mol-Kelvin    Cal/Mol-Kelvin
 Total                   92.618             44.715            118.288
 Electronic               0.000              0.000              0.000
 Translational            0.889              2.981             42.599
 Rotational               0.889              2.981             32.036
 Vibrational             90.841             38.754             43.653
 Vibration     1          0.596              1.976              4.637
 Vibration     2          0.598              1.968              4.157
 Vibration     3          0.601              1.960              3.801
 Vibration     4          0.604              1.950              3.475
 Vibration     5          0.609              1.931              3.072
 Vibration     6          0.617              1.907              2.729
 Vibration     7          0.617              1.905              2.699
 Vibration     8          0.627              1.873              2.377
 Vibration     9          0.630              1.864              2.306
 Vibration    10          0.647              1.810              1.955
 Vibration    11          0.649              1.806              1.934
 Vibration    12          0.667              1.751              1.680
 Vibration    13          0.673              1.730              1.603
 Vibration    14          0.690              1.680              1.435
 Vibration    15          0.713              1.615              1.260
 Vibration    16          0.732              1.562              1.138
 Vibration    17          0.803              1.376              0.817
 Vibration    18          0.868              1.222              0.627

 Optimization completed.
    -- Stationary point found.
 Normal termination of Gaussian 16 at Sun Feb 28 19:27:06 2021.
