 Gaussian 16, Revision A.03,
 Gaussian 16:  ES64L-G16RevA.03 25-Dec-2016

 ----------------------------------------------------------------------
 # wB97XD def2tzvp, opt=(ts, noeigen, calcfc, maxcycles=70, maxstep=8),
  freq=noraman, scrf=(iefpcm, solvent=water)
 ----------------------------------------------------------------------

 ------------------------
 1_iteration/TS-954-1.out
 ------------------------
 Symbolic Z-matrix:
 Charge =  0 Multiplicity = 1

 SCF Done:  E(RwB97XD) =  -3819.91901842     A.U. after   15 cycles
 SCF Done:  E(RwB97XD) =  -3819.91956345     A.U. after   13 cycles
 SCF Done:  E(RwB97XD) =  -3819.91962117     A.U. after   11 cycles
 SCF Done:  E(RwB97XD) =  -3819.91962527     A.U. after   11 cycles
 SCF Done:  E(RwB97XD) =  -3819.91962694     A.U. after   10 cycles
 SCF Done:  E(RwB97XD) =  -3819.91962724     A.U. after    8 cycles
 SCF Done:  E(RwB97XD) =  -3819.91962636     A.U. after    9 cycles
 SCF Done:  E(RwB97XD) =  -3819.91962698     A.U. after    9 cycles
 SCF Done:  E(RwB97XD) =  -3819.91962712     A.U. after    8 cycles
 Optimization completed.
    -- Stationary point found.
 Normal termination of Gaussian 16 at Sun Feb 28 13:39:23 2021.

 ---------------------------------------------------------------------
 #N Geom=AllCheck Guess=TCheck SCRF=Check GenChk RwB97XD/def2TZVP Freq
 ---------------------------------------------------------------------

 Structure from the checkpoint file:  "/beegfs/scratch/user/q/tla25/Gau-7719.chk"
 ------------------------
 1_iteration/TS-954-1.out
 ------------------------
 Charge =  0 Multiplicity = 1

                         Standard orientation:
 ---------------------------------------------------------------------
 Center     Atomic      Atomic             Coordinates (Angstroms)
 Number     Number       Type             X           Y           Z
 ---------------------------------------------------------------------
      1          6           0        0.976614    0.139868   -0.290877
      2          6           0        1.453009    1.473905    0.014160
      3          8           0        2.600520    1.810008   -0.263166
      4          6           0       -0.295982   -0.398414   -0.096782
      5          6           0        0.575107   -1.383497    2.367815
      6          1           0        0.437313   -1.515334    3.440069
      7          1           0        0.805346   -2.342431    1.909005
      8          1           0        1.400287   -0.693435    2.194280
      9          7           0       -0.626205   -0.832559    1.751240
     10          1           0       -1.406250   -1.480811    1.778346
     11          1           0       -0.917168    0.023883    2.210035
     12         17           0       -0.616847   -1.987576   -0.769381
     13         35           0       -1.864149    0.712972   -0.379868
     14         17           0        2.245713   -0.944230   -0.834269
     15          6           0        0.575307    2.491801    0.712366
     16          1           0        1.237815    3.202316    1.202353
     17          1           0       -0.026498    3.031057   -0.020174
     18          1           0       -0.101397    2.067312    1.450072
 ---------------------------------------------------------------------

 SCF Done:  E(RwB97XD) =  -3819.91962712     A.U. after    1 cycles

 The electronic state is 1-A.
 Alpha  occ. eigenvalues -- -483.14873-101.72015-101.69096 -62.69722 -56.48863
 Alpha  occ. eigenvalues --  -56.48470 -56.48459 -19.21911 -14.50471 -10.46136
 Alpha  occ. eigenvalues --  -10.37374 -10.32986 -10.32472 -10.28179  -9.60593
 Alpha  occ. eigenvalues --   -9.57623  -8.83833  -7.35288  -7.34353  -7.34302
 Alpha  occ. eigenvalues --   -7.32284  -7.31397  -7.31378  -6.66062  -6.64814
 Alpha  occ. eigenvalues --   -6.64777  -2.76432  -2.76082  -2.76053  -2.75045
 Alpha  occ. eigenvalues --   -2.75044  -1.13179  -1.06324  -1.00923  -0.94963
 Alpha  occ. eigenvalues --   -0.90895  -0.85250  -0.81046  -0.79927  -0.71369
 Alpha  occ. eigenvalues --   -0.64966  -0.61334  -0.59052  -0.57685  -0.56479
 Alpha  occ. eigenvalues --   -0.55685  -0.52740  -0.51156  -0.49905  -0.49015
 Alpha  occ. eigenvalues --   -0.48537  -0.46988  -0.45356  -0.42915  -0.41603
 Alpha  occ. eigenvalues --   -0.41315  -0.39467  -0.38565  -0.37357  -0.33544
 Alpha  occ. eigenvalues --   -0.28924
 Alpha virt. eigenvalues --    0.01415   0.02932   0.05868   0.09735   0.12937
 Alpha virt. eigenvalues --    0.13975   0.14529   0.15375   0.16184   0.18511
 Alpha virt. eigenvalues --    0.18875   0.19637   0.21166   0.21630   0.22835

 Mulliken charges:
               1
     1  C   -0.160693
     2  C    0.208762
     3  O   -0.465197
     4  C    0.104607
     5  C   -0.292741
     6  H    0.169413
     7  H    0.163793
     8  H    0.162705
     9  N   -0.318241
    10  H    0.300216
    11  H    0.289399
    12  Cl  -0.030108
    13  Br  -0.030534
    14  Cl  -0.146882
    15  C   -0.363491
    16  H    0.138891
    17  H    0.157727
    18  H    0.112375
 Sum of Mulliken charges =  -0.00000

 Dipole moment (field-independent basis, Debye):
    X=             -7.5980    Y=             -2.8915    Z=              7.5956  Tot=             11.1258
 Quadrupole moment (field-independent basis, Debye-Ang):
   XX=           -102.3296   YY=            -84.2947   ZZ=            -74.1918
   XY=             -7.0951   XZ=              1.1152   YZ=             -3.5725

  Exact polarizability: 192.334  10.944 178.045 -11.558  -3.085 142.269
 Approx polarizability: 158.533   5.910 146.667  -9.561  -1.006 123.666

 ******    1 imaginary frequencies (negative Signs) ******

                      1                      2                      3
                      A                      A                      A
 Frequencies --   -364.4826                60.7311                69.3585
 Red. masses --      5.8836                 8.9532                 4.7201
 Frc consts  --      0.4605                 0.0195                 0.0134
 IR Inten    --    848.4182                 0.6689                 4.9445

                      4                      5                      6
                      A                      A                      A
 Frequencies --     80.4045               130.7356               159.7552
 Red. masses --      2.7587                 4.1638                 3.7484
 Frc consts  --      0.0105                 0.0419                 0.0564
 IR Inten    --      7.6022                 3.2605                 3.0485

                      7                      8                      9
                      A                      A                      A
 Frequencies --    172.8917               214.2949               218.7524
 Red. masses --      1.3909                 2.2307                 1.3116
 Frc consts  --      0.0245                 0.0604                 0.0370
 IR Inten    --      0.2051                 1.3208                 0.3260

                     10                     11                     12
                      A                      A                      A
 Frequencies --    226.4435               247.8609               267.1978
 Red. masses --      7.6813                12.3501                 6.6574
 Frc consts  --      0.2321                 0.4470                 0.2800
 IR Inten    --      8.0351                 1.1863                14.8533

                     13                     14                     15
                      A                      A                      A
 Frequencies --    282.2823               301.1149               369.3227
 Red. masses --      4.1461                 4.9756                 7.2733
 Frc consts  --      0.1947                 0.2658                 0.5845
 IR Inten    --     14.2907                 3.5640                13.5636

                     16                     17                     18
                      A                      A                      A
 Frequencies --    431.3204               515.2904               597.2067
 Red. masses --      5.9505                 6.6581                 3.7718
 Frc consts  --      0.6522                 1.0416                 0.7926
 IR Inten    --      0.2013               108.6417                41.3579

                     19                     20                     21
                      A                      A                      A
 Frequencies --    636.9644               666.2312               751.4720
 Red. masses --      3.0300                 1.4630                 9.7332
 Frc consts  --      0.7243                 0.3826                 3.2384
 IR Inten    --     41.3073                15.8876               257.7657

                     22                     23                     24
                      A                      A                      A
 Frequencies --    846.5801               930.9683              1001.9959
 Red. masses --      4.5074                 4.5615                 1.0852
 Frc consts  --      1.9033                 2.3293                 0.6420
 IR Inten    --    133.0276                20.1471                10.2270

                     25                     26                     27
                      A                      A                      A
 Frequencies --   1029.1156              1044.3460              1050.7864
 Red. masses --      1.5272                 1.7775                 1.2875
 Frc consts  --      0.9530                 1.1422                 0.8376
 IR Inten    --    107.0786                16.1196               100.1735

                     28                     29                     30
                      A                      A                      A
 Frequencies --   1076.8389              1228.9664              1297.2104
 Red. masses --      5.0519                 1.3985                 4.7282
 Frc consts  --      3.4515                 1.2445                 4.6877
 IR Inten    --     60.7875                27.3169               353.8240

                     31                     32                     33
                      A                      A                      A
 Frequencies --   1339.0759              1365.6795              1398.8112
 Red. masses --      1.3489                 7.8419                 1.2840
 Frc consts  --      1.4251                 8.6172                 1.4803
 IR Inten    --     15.6386              1194.4248                64.9072

                     34                     35                     36
                      A                      A                      A
 Frequencies --   1457.6780              1460.4084              1482.8556
 Red. masses --      1.1819                 1.0671                 1.0759
 Frc consts  --      1.4796                 1.3409                 1.3939
 IR Inten    --     13.0009                12.5272                13.5908

                     37                     38                     39
                      A                      A                      A
 Frequencies --   1490.9909              1498.0217              1640.7607
 Red. masses --      1.0422                 1.0333                 1.0903
 Frc consts  --      1.3650                 1.3661                 1.7294
 IR Inten    --     24.2623                19.0537                81.3321

                     40                     41                     42
                      A                      A                      A
 Frequencies --   1672.9676              3074.4148              3077.4866
 Red. masses --     10.5046                 1.0327                 1.0367
 Frc consts  --     17.3222                 5.7511                 5.7850
 IR Inten    --    640.4296                19.7404                 6.7593

                     43                     44                     45
                      A                      A                      A
 Frequencies --   3154.8599              3155.3190              3173.1633
 Red. masses --      1.1000                 1.1052                 1.1035
 Frc consts  --      6.4504                 6.4831                 6.5464
 IR Inten    --     12.7919                 5.1738                29.7055

                     46                     47                     48
                      A                      A                      A
 Frequencies --   3174.7343              3516.3225              3600.5992
 Red. masses --      1.1063                 1.0507                 1.0968
 Frc consts  --      6.5696                 7.6541                 8.3775
 IR Inten    --      7.7575                74.2865                62.3986

 - Thermochemistry -
 -------------------
 Temperature   298.150 Kelvin.  Pressure   1.00000 Atm.
 Atom     1 has atomic number  6 and mass  12.00000

 Molecular mass:   246.91663 amu.
 Principal axes and moments of inertia in atomic units:
                           1         2         3
     Eigenvalues --  2271.949112985.449153790.09485
           X            0.99722   0.07441  -0.00293
           Y           -0.07446   0.99676  -0.03053
           Z            0.00064   0.03067   0.99953
 This molecule is an asymmetric top.
 Rotational symmetry number  1.
 Warning -- assumption of classical behavior for rotation
           may cause significant error
 Rotational temperatures (Kelvin)      0.03812     0.02901     0.02285
 Rotational constants (GHZ):           0.79436     0.60451     0.47617
    1 imaginary frequencies ignored.
 Zero-point vibrational energy     338786.0 (Joules/Mol)
                                   80.97179 (Kcal/Mol)
 Warning -- explicit consideration of  17 degrees of freedom as
           vibrations may cause significant error
 Vibrational temperatures:     87.38    99.79   115.68   188.10   229.85
          (Kelvin)            248.75   308.32   314.74   325.80   356.62
                              384.44   406.14   433.24   531.37   620.57
                              741.39   859.25   916.45   958.56  1081.20
                             1218.04  1339.46  1441.65  1480.67  1502.58
                             1511.85  1549.33  1768.21  1866.40  1926.63
                             1964.91  2012.58  2097.27  2101.20  2133.50
                             2145.20  2155.32  2360.69  2407.03  4423.40
                             4427.82  4539.14  4539.80  4565.47  4567.73
                             5059.20  5180.46

 Zero-point correction=                           0.129037 (Hartree/Particle)
 Thermal correction to Energy=                    0.141275
 Thermal correction to Enthalpy=                  0.142220
 Thermal correction to Gibbs Free Energy=         0.089250
 Sum of electronic and zero-point Energies=          -3819.790590
 Sum of electronic and thermal Energies=             -3819.778352
 Sum of electronic and thermal Enthalpies=           -3819.777408
 Sum of electronic and thermal Free Energies=        -3819.830377

                     E (Thermal)             CV                S
                      KCal/Mol        Cal/Mol-Kelvin    Cal/Mol-Kelvin
 Total                   88.652             41.538            111.483
 Electronic               0.000              0.000              0.000
 Translational            0.889              2.981             42.412
 Rotational               0.889              2.981             31.620
 Vibrational             86.874             35.576             37.451
 Vibration     1          0.597              1.973              4.433
 Vibration     2          0.598              1.969              4.171
 Vibration     3          0.600              1.962              3.881
 Vibration     4          0.612              1.923              2.935
 Vibration     5          0.622              1.892              2.553
 Vibration     6          0.626              1.876              2.404
 Vibration     7          0.644              1.819              2.007
 Vibration     8          0.647              1.813              1.969
 Vibration     9          0.650              1.801              1.907
 Vibration    10          0.661              1.766              1.746
 Vibration    11          0.672              1.733              1.614
 Vibration    12          0.681              1.706              1.520
 Vibration    13          0.693              1.672              1.411
 Vibration    14          0.742              1.535              1.083
 Vibration    15          0.792              1.402              0.854
 Vibration    16          0.870              1.216              0.621
 Vibration    17          0.955              1.038              0.454

 Optimization completed.
    -- Stationary point found.
 Normal termination of Gaussian 16 at Sun Feb 28 13:53:16 2021.
