 Gaussian 16, Revision A.03,
 Gaussian 16:  ES64L-G16RevA.03 25-Dec-2016

 ----------------------------------------------------------------------
 # wB97XD def2tzvp, opt=(ts, noeigen, calcfc, maxcycles=70, maxstep=1),
  freq=noraman, scrf=(iefpcm, solvent=water)
 ----------------------------------------------------------------------

 ------------------------
 0_iteration/TS-997-0.out
 ------------------------
 Symbolic Z-matrix:
 Charge =  0 Multiplicity = 1

 SCF Done:  E(RwB97XD) =  -1761.28815678     A.U. after   15 cycles
 SCF Done:  E(RwB97XD) =  -1761.28815584     A.U. after   10 cycles
 SCF Done:  E(RwB97XD) =  -1761.28815915     A.U. after   10 cycles
 SCF Done:  E(RwB97XD) =  -1761.28817004     A.U. after   10 cycles
 SCF Done:  E(RwB97XD) =  -1761.28819708     A.U. after   10 cycles
 SCF Done:  E(RwB97XD) =  -1761.28824439     A.U. after   10 cycles
 SCF Done:  E(RwB97XD) =  -1761.28831148     A.U. after   10 cycles
 SCF Done:  E(RwB97XD) =  -1761.28840312     A.U. after   10 cycles
 SCF Done:  E(RwB97XD) =  -1761.28851577     A.U. after   10 cycles
 SCF Done:  E(RwB97XD) =  -1761.28865050     A.U. after   10 cycles
 SCF Done:  E(RwB97XD) =  -1761.29393052     A.U. after   10 cycles
 SCF Done:  E(RwB97XD) =  -1761.29403991     A.U. after   10 cycles
 SCF Done:  E(RwB97XD) =  -1761.29412580     A.U. after   10 cycles
 SCF Done:  E(RwB97XD) =  -1761.29419086     A.U. after   10 cycles
 SCF Done:  E(RwB97XD) =  -1761.29423664     A.U. after   10 cycles
 SCF Done:  E(RwB97XD) =  -1761.29426313     A.U. after   10 cycles
 SCF Done:  E(RwB97XD) =  -1761.29427168     A.U. after   10 cycles
 SCF Done:  E(RwB97XD) =  -1761.29427180     A.U. after    8 cycles
 SCF Done:  E(RwB97XD) =  -1761.29427186     A.U. after    7 cycles
 Optimization completed.
    -- Stationary point found.
 Normal termination of Gaussian 16 at Sun Feb 28 00:34:37 2021.

 ---------------------------------------------------------------------
 #N Geom=AllCheck Guess=TCheck SCRF=Check GenChk RwB97XD/def2TZVP Freq
 ---------------------------------------------------------------------

 Structure from the checkpoint file:  "/beegfs/scratch/user/q/tla25/Gau-32537.chk"
 ------------------------
 0_iteration/TS-997-0.out
 ------------------------
 Charge =  0 Multiplicity = 1

                         Standard orientation:
 ---------------------------------------------------------------------
 Center     Atomic      Atomic             Coordinates (Angstroms)
 Number     Number       Type             X           Y           Z
 ---------------------------------------------------------------------
      1          6           0       -0.489711    0.534813   -0.122264
      2          6           0       -1.555102   -0.456828   -0.015157
      3          8           0       -1.301343   -1.662884    0.119837
      4          6           0        0.831264    0.143522   -0.274746
      5          6           0        2.652130   -1.485939    1.425524
      6          1           0        2.744157   -2.005168    2.380778
      7          1           0        2.794170   -2.200143    0.617839
      8          1           0        3.419600   -0.716396    1.363030
      9          7           0        1.338251   -0.866306    1.290050
     10          1           0        0.577340   -1.542743    1.257122
     11          1           0        1.150059   -0.206445    2.036266
     12         17           0        2.065956    1.375641   -0.287459
     13         17           0        1.209369   -1.108803   -1.479576
     14         17           0       -0.864247    2.184253    0.330108
     15          7           0       -2.829460   -0.016001   -0.041540
     16          6           0       -3.950525   -0.912070    0.115998
     17          1           0       -3.003739    0.962398   -0.180038
     18          1           0       -3.862979   -1.486840    1.039282
     19          1           0       -4.862442   -0.320823    0.156259
     20          1           0       -4.023606   -1.614161   -0.717164
 ---------------------------------------------------------------------

 SCF Done:  E(RwB97XD) =  -1761.29427186     A.U. after    1 cycles

 The electronic state is 1-A.
 Alpha  occ. eigenvalues -- -101.71778-101.70696-101.69965 -19.21117 -14.48694
 Alpha  occ. eigenvalues --  -14.45350 -10.45604 -10.38982 -10.32269 -10.31853
 Alpha  occ. eigenvalues --  -10.31006  -9.60358  -9.59278  -9.58479  -7.35041
 Alpha  occ. eigenvalues --   -7.34120  -7.34079  -7.33959  -7.33131  -7.33036
 Alpha  occ. eigenvalues --   -7.33007  -7.32269  -7.32231  -1.13965  -1.05430
 Alpha  occ. eigenvalues --   -1.02367  -1.01033  -0.95834  -0.93562  -0.83869
 Alpha  occ. eigenvalues --   -0.80832  -0.78516  -0.70116  -0.66620  -0.63547
 Alpha  occ. eigenvalues --   -0.61258  -0.57453  -0.57017  -0.56437  -0.54420
 Alpha  occ. eigenvalues --   -0.53611  -0.52832  -0.49548  -0.48626  -0.48226
 Alpha  occ. eigenvalues --   -0.47670  -0.47054  -0.43615  -0.42929  -0.42160
 Alpha  occ. eigenvalues --   -0.40874  -0.39236  -0.38998  -0.34726  -0.34038
 Alpha  occ. eigenvalues --   -0.27811
 Alpha virt. eigenvalues --    0.03080   0.06499   0.07234   0.10977   0.13063
 Alpha virt. eigenvalues --    0.13615   0.15309   0.15354   0.17366   0.17761
 Alpha virt. eigenvalues --    0.18799   0.18993   0.20432   0.20944   0.21928

 Mulliken charges:
               1
     1  C   -0.248210
     2  C    0.403017
     3  O   -0.555452
     4  C    0.153630
     5  C   -0.271350
     6  H    0.154679
     7  H    0.149713
     8  H    0.148146
     9  N   -0.335240
    10  H    0.282168
    11  H    0.284707
    12  Cl  -0.037509
    13  Cl  -0.074817
    14  Cl  -0.145533
    15  N   -0.322392
    16  C   -0.245281
    17  H    0.255403
    18  H    0.130307
    19  H    0.143640
    20  H    0.130375
 Sum of Mulliken charges =  -0.00000

 Dipole moment (field-independent basis, Debye):
    X=              1.1549    Y=             -0.1229    Z=              4.1164  Tot=              4.2771
 Quadrupole moment (field-independent basis, Debye-Ang):
   XX=            -68.4847   YY=            -91.2323   ZZ=            -81.2017
   XY=             -7.4267   XZ=              6.9174   YZ=             -3.4907

  Exact polarizability: 206.959 -11.676 170.390   8.404   0.718 133.774
 Approx polarizability: 154.118  -7.884 149.440   4.797   2.052 119.047

 ******    1 imaginary frequencies (negative Signs) ******

                      1                      2                      3
                      A                      A                      A
 Frequencies --   -357.5878                53.8799                68.9693
 Red. masses --      6.8587                 5.2494                 4.4790
 Frc consts  --      0.5167                 0.0090                 0.0126
 IR Inten    --    832.4508                 6.8934                16.8689

                      4                      5                      6
                      A                      A                      A
 Frequencies --     91.7147               101.5423               116.2514
 Red. masses --      1.6679                 2.4033                 2.3188
 Frc consts  --      0.0083                 0.0146                 0.0185
 IR Inten    --      1.7206                 1.4761                19.5269

                      7                      8                      9
                      A                      A                      A
 Frequencies --    128.9970               159.3507               177.2962
 Red. masses --      1.9151                 4.8194                 1.9717
 Frc consts  --      0.0188                 0.0721                 0.0365
 IR Inten    --      0.7622                 5.7035                10.0155

                     10                     11                     12
                      A                      A                      A
 Frequencies --    210.1077               225.2042               247.8074
 Red. masses --      5.5294                 9.9905                 3.2559
 Frc consts  --      0.1438                 0.2985                 0.1178
 IR Inten    --     30.2390                 5.8854                 2.2852

                     13                     14                     15
                      A                      A                      A
 Frequencies --    263.5775               293.8871               321.7009
 Red. masses --      9.0483                 4.4483                 8.8594
 Frc consts  --      0.3704                 0.2264                 0.5402
 IR Inten    --      7.3409                29.4245                10.2698

                     16                     17                     18
                      A                      A                      A
 Frequencies --    341.8842               401.1540               434.2208
 Red. masses --      4.7052                 3.8326                 1.6852
 Frc consts  --      0.3240                 0.3634                 0.1872
 IR Inten    --     22.1965                48.4417                79.8768

                     19                     20                     21
                      A                      A                      A
 Frequencies --    449.0723               503.4006               688.6588
 Red. masses --      5.3466                 7.1442                 1.5596
 Frc consts  --      0.6353                 1.0667                 0.4358
 IR Inten    --     17.4675               215.6786                25.1301

                     22                     23                     24
                      A                      A                      A
 Frequencies --    712.6356               777.1873               797.5179
 Red. masses --      6.8702                 9.2532                 4.1609
 Frc consts  --      2.0557                 3.2930                 1.5592
 IR Inten    --     73.4342                60.7665               196.1968

                     25                     26                     27
                      A                      A                      A
 Frequencies --    874.8236              1020.9901              1042.0352
 Red. masses --      4.0265                 2.1911                 1.2048
 Frc consts  --      1.8156                 1.3457                 0.7708
 IR Inten    --     83.5196                13.4410                45.7785

                     28                     29                     30
                      A                      A                      A
 Frequencies --   1052.4601              1089.7515              1154.7653
 Red. masses --      1.7842                 2.8396                 2.0014
 Frc consts  --      1.1644                 1.9869                 1.5724
 IR Inten    --     11.2786               254.0331                 2.2985

                     31                     32                     33
                      A                      A                      A
 Frequencies --   1159.4981              1193.8357              1217.6623
 Red. masses --      2.2026                 1.7352                 1.3904
 Frc consts  --      1.7447                 1.4571                 1.2146
 IR Inten    --      0.7268                13.7594                38.6615

                     34                     35                     36
                      A                      A                      A
 Frequencies --   1316.8186              1344.8133              1408.9957
 Red. masses --      2.3683                 1.3053                 6.8624
 Frc consts  --      2.4196                 1.3908                 8.0269
 IR Inten    --    514.0437                 2.0923               842.7406

                     37                     38                     39
                      A                      A                      A
 Frequencies --   1459.6791              1460.4133              1478.0851
 Red. masses --      1.2064                 1.2031                 1.0491
 Frc consts  --      1.5144                 1.5118                 1.3504
 IR Inten    --     16.9320                10.5275                14.0496

                     40                     41                     42
                      A                      A                      A
 Frequencies --   1491.5986              1501.4445              1506.4060
 Red. masses --      1.0422                 1.0296                 1.0655
 Frc consts  --      1.3662                 1.3675                 1.4245
 IR Inten    --     20.3413                20.4394                 9.2388

                     43                     44                     45
                      A                      A                      A
 Frequencies --   1578.9436              1651.1466              1655.1502
 Red. masses --      1.9756                 1.3159                 3.4938
 Frc consts  --      2.9019                 2.1137                 5.6393
 IR Inten    --    687.3275               157.7832               319.2106

                     46                     47                     48
                      A                      A                      A
 Frequencies --   3052.5237              3067.0587              3111.6723
 Red. masses --      1.0360                 1.0363                 1.1041
 Frc consts  --      5.6875                 5.7436                 6.2984
 IR Inten    --     71.9640                47.0489                39.0759

                     49                     50                     51
                      A                      A                      A
 Frequencies --   3145.1905              3163.9080              3176.6400
 Red. masses --      1.1015                 1.1019                 1.1052
 Frc consts  --      6.4198                 6.4988                 6.5707
 IR Inten    --     12.2835                21.0446                10.0841

                     52                     53                     54
                      A                      A                      A
 Frequencies --   3466.2810              3581.7240              3686.7440
 Red. masses --      1.0580                 1.0910                 1.0780
 Frc consts  --      7.4895                 8.2465                 8.6326
 IR Inten    --     74.3225                70.5664                93.5566

 - Thermochemistry -
 -------------------
 Temperature   298.150 Kelvin.  Pressure   1.00000 Atm.
 Atom     1 has atomic number  6 and mass  12.00000

 Molecular mass:   217.97805 amu.
 Principal axes and moments of inertia in atomic units:
                           1         2         3
     Eigenvalues --  1919.739573365.537734239.79056
           X            0.99964  -0.00654   0.02610
           Y            0.00787   0.99867  -0.05103
           Z           -0.02573   0.05122   0.99836
 This molecule is an asymmetric top.
 Rotational symmetry number  1.
 Warning -- assumption of classical behavior for rotation
           may cause significant error
 Rotational temperatures (Kelvin)      0.04512     0.02574     0.02043
 Rotational constants (GHZ):           0.94010     0.53624     0.42567
    1 imaginary frequencies ignored.
 Zero-point vibrational energy     386854.8 (Joules/Mol)
                                   92.46052 (Kcal/Mol)
 Warning -- explicit consideration of  19 degrees of freedom as
           vibrations may cause significant error
 Vibrational temperatures:     77.52    99.23   131.96   146.10   167.26
          (Kelvin)            185.60   229.27   255.09   302.30   324.02
                              356.54   379.23   422.84   462.86   491.90
                              577.17   624.75   646.11   724.28   990.83
                             1025.32  1118.20  1147.45  1258.68  1468.98
                             1499.26  1514.26  1567.91  1661.45  1668.26
                             1717.66  1751.94  1894.61  1934.89  2027.23
                             2100.15  2101.21  2126.63  2146.08  2160.24
                             2167.38  2271.75  2375.63  2381.39  4391.90
                             4412.81  4477.00  4525.23  4552.16  4570.48
                             4987.21  5153.30  5304.40

 Zero-point correction=                           0.147345 (Hartree/Particle)
 Thermal correction to Energy=                    0.160890
 Thermal correction to Enthalpy=                  0.161834
 Thermal correction to Gibbs Free Energy=         0.106215
 Sum of electronic and zero-point Energies=          -1761.146927
 Sum of electronic and thermal Energies=             -1761.133382
 Sum of electronic and thermal Enthalpies=           -1761.132438
 Sum of electronic and thermal Free Energies=        -1761.188057

                     E (Thermal)             CV                S
                      KCal/Mol        Cal/Mol-Kelvin    Cal/Mol-Kelvin
 Total                  100.960             45.644            117.061
 Electronic               0.000              0.000              0.000
 Translational            0.889              2.981             42.041
 Rotational               0.889              2.981             31.683
 Vibrational             99.183             39.682             43.337
 Vibration     1          0.596              1.976              4.670
 Vibration     2          0.598              1.969              4.183
 Vibration     3          0.602              1.955              3.623
 Vibration     4          0.604              1.948              3.424
 Vibration     5          0.608              1.936              3.162
 Vibration     6          0.611              1.924              2.961
 Vibration     7          0.621              1.892              2.557
 Vibration     8          0.628              1.870              2.357
 Vibration     9          0.642              1.825              2.043
 Vibration    10          0.650              1.803              1.917
 Vibration    11          0.661              1.766              1.746
 Vibration    12          0.670              1.740              1.638
 Vibration    13          0.689              1.685              1.451
 Vibration    14          0.707              1.632              1.301
 Vibration    15          0.721              1.592              1.203
 Vibration    16          0.767              1.468              0.958
 Vibration    17          0.795              1.396              0.845
 Vibration    18          0.808              1.363              0.799
 Vibration    19          0.859              1.242              0.650

 Optimization completed.
    -- Stationary point found.
 Normal termination of Gaussian 16 at Sun Feb 28 00:54:13 2021.
