 Gaussian 16, Revision A.03,
 Gaussian 16:  ES64L-G16RevA.03 25-Dec-2016

 ----------------------------------------------------------------------
 # wB97XD def2tzvp, opt=(ts, noeigen, calcfc, maxcycles=70, maxstep=8),
  freq=noraman, scrf=(iefpcm, solvent=water)
 ----------------------------------------------------------------------

 ------------------------
 1_iteration/TS-993-1.out
 ------------------------
 Symbolic Z-matrix:
 Charge =  0 Multiplicity = 1

 SCF Done:  E(RwB97XD) =  -1666.60389452     A.U. after   15 cycles
 SCF Done:  E(RwB97XD) =  -1666.60389448     A.U. after    8 cycles
 Optimization completed.
    -- Stationary point found.
 Normal termination of Gaussian 16 at Sun Feb 28 12:42:32 2021.

 ---------------------------------------------------------------------
 #N Geom=AllCheck Guess=TCheck SCRF=Check GenChk RwB97XD/def2TZVP Freq
 ---------------------------------------------------------------------

 Structure from the checkpoint file:  "/beegfs/scratch/user/q/tla25/Gau-86222.chk"
 ------------------------
 1_iteration/TS-993-1.out
 ------------------------
 Charge =  0 Multiplicity = 1

                         Standard orientation:
 ---------------------------------------------------------------------
 Center     Atomic      Atomic             Coordinates (Angstroms)
 Number     Number       Type             X           Y           Z
 ---------------------------------------------------------------------
      1          6           0       -0.826417    0.056702   -0.291228
      2          6           0       -1.589751   -1.080751   -0.703693
      3          8           0       -2.805528   -1.180220   -0.629957
      4          6           0        0.556140    0.125171   -0.296581
      5          6           0        0.560814   -1.505102    2.050714
      6          1           0        0.793941   -1.681059    3.100799
      7          1           0       -0.517568   -1.382142    1.946268
      8          1           0        0.879400   -2.365172    1.464303
      9          7           0        1.218798   -0.310235    1.548618
     10          1           0        2.227253   -0.404753    1.512707
     11          1           0        0.993245    0.506877    2.104250
     12         17           0        1.342172    1.687554   -0.406706
     13         17           0        1.440240   -1.098332   -1.172195
     14         17           0       -1.704507    1.367533    0.440387
     15          1           0       -0.992738   -1.901296   -1.129508
 ---------------------------------------------------------------------

 SCF Done:  E(RwB97XD) =  -1666.60389448     A.U. after    1 cycles

 The electronic state is 1-A.
 Alpha  occ. eigenvalues -- -101.72677-101.72136-101.70211 -19.22986 -14.48992
 Alpha  occ. eigenvalues --  -10.46503 -10.36820 -10.33651 -10.32112  -9.61244
 Alpha  occ. eigenvalues --   -9.60712  -9.58727  -7.35940  -7.35400  -7.34991
 Alpha  occ. eigenvalues --   -7.34970  -7.34470  -7.34431  -7.33383  -7.32506
 Alpha  occ. eigenvalues --   -7.32486  -1.13600  -1.06129  -1.02145  -0.96849
 Alpha  occ. eigenvalues --   -0.94862  -0.84561  -0.79392  -0.73834  -0.64383
 Alpha  occ. eigenvalues --   -0.63378  -0.60439  -0.58784  -0.57389  -0.55820
 Alpha  occ. eigenvalues --   -0.51899  -0.50424  -0.49721  -0.48879  -0.47801
 Alpha  occ. eigenvalues --   -0.44555  -0.43333  -0.42272  -0.41959  -0.39459
 Alpha  occ. eigenvalues --   -0.38923  -0.34281  -0.30006
 Alpha virt. eigenvalues --    0.00674   0.05812   0.06539   0.10733   0.12404
 Alpha virt. eigenvalues --    0.14112   0.15294   0.15763   0.18016   0.18597
 Alpha virt. eigenvalues --    0.20119   0.22180   0.23355   0.23823   0.26791

 Mulliken charges:
               1
     1  C   -0.102727
     2  C    0.083530
     3  O   -0.450481
     4  C    0.141533
     5  C   -0.310707
     6  H    0.166766
     7  H    0.165460
     8  H    0.161134
     9  N   -0.374072
    10  H    0.297914
    11  H    0.290355
    12  Cl  -0.027561
    13  Cl  -0.023199
    14  Cl  -0.123659
    15  H    0.105713
 Sum of Mulliken charges =  -0.00000

 Dipole moment (field-independent basis, Debye):
    X=              8.6082    Y=             -1.1644    Z=              4.9788  Tot=             10.0123
 Quadrupole moment (field-independent basis, Debye-Ang):
   XX=            -87.2944   YY=            -72.2455   ZZ=            -64.4281
   XY=             -6.0085   XZ=              2.7473   YZ=             -2.0750

  Exact polarizability: 173.576   4.476 137.335  10.867   7.714 122.386
 Approx polarizability: 142.706   3.256 119.678   5.640   7.932 105.734

 ******    1 imaginary frequencies (negative Signs) ******

                      1                      2                      3
                      A                      A                      A
 Frequencies --   -357.6453                62.6841                66.7958
 Red. masses --      5.8100                 9.4202                 2.1401
 Frc consts  --      0.4379                 0.0218                 0.0056
 IR Inten    --    833.0266                 0.9729                 0.3703

                      4                      5                      6
                      A                      A                      A
 Frequencies --    113.5349               148.3573               176.4086
 Red. masses --      2.8283                 1.9321                 7.5940
 Frc consts  --      0.0215                 0.0251                 0.1392
 IR Inten    --      8.6784                 0.7217                 5.5447

                      7                      8                      9
                      A                      A                      A
 Frequencies --    199.7103               220.8613               239.8833
 Red. masses --      3.3406                 6.9728                 4.7950
 Frc consts  --      0.0785                 0.2004                 0.1626
 IR Inten    --      4.1522                 8.3562                15.9162

                     10                     11                     12
                      A                      A                      A
 Frequencies --    269.2448               308.3854               341.0976
 Red. masses --      4.7884                 7.4428                 3.5698
 Frc consts  --      0.2045                 0.4170                 0.2447
 IR Inten    --      7.9338                20.5918                 3.2649

                     13                     14                     15
                      A                      A                      A
 Frequencies --    356.1569               436.3124               535.0044
 Red. masses --     11.4598                13.5960                 5.7137
 Frc consts  --      0.8565                 1.5250                 0.9636
 IR Inten    --      9.2157                 2.6445               137.6928

                     16                     17                     18
                      A                      A                      A
 Frequencies --    635.8391               672.0848               813.4977
 Red. masses --      1.3983                 7.2962                 7.1530
 Frc consts  --      0.3331                 1.9418                 2.7890
 IR Inten    --      7.6955               100.0509               209.7175

                     19                     20                     21
                      A                      A                      A
 Frequencies --    867.6628               995.1436              1014.7619
 Red. masses --      7.6461                 1.0792                 1.3438
 Frc consts  --      3.3915                 0.6297                 0.8153
 IR Inten    --    181.5521                36.2635                41.9430

                     22                     23                     24
                      A                      A                      A
 Frequencies --   1018.9530              1086.9074              1207.1644
 Red. masses --      1.3580                 4.8307                 1.4241
 Frc consts  --      0.8307                 3.3623                 1.2227
 IR Inten    --     58.3409                21.8687                 9.2116

                     25                     26                     27
                      A                      A                      A
 Frequencies --   1228.8283              1340.8883              1371.3443
 Red. masses --      4.7351                 1.3354                 1.9874
 Frc consts  --      4.2127                 1.4146                 2.2021
 IR Inten    --    374.2677                 2.7606               489.8453

                     28                     29                     30
                      A                      A                      A
 Frequencies --   1447.8354              1469.4461              1491.5811
 Red. masses --      1.7087                 1.6153                 1.0426
 Frc consts  --      2.1103                 2.0550                 1.3666
 IR Inten    --    412.4283               253.0208                22.8511

                     31                     32                     33
                      A                      A                      A
 Frequencies --   1504.1113              1643.0930              1698.7795
 Red. masses --      1.0335                 1.0912                 9.7815
 Frc consts  --      1.3776                 1.7357                16.6314
 IR Inten    --     17.8155                59.8701               870.4076

                     34                     35                     36
                      A                      A                      A
 Frequencies --   3006.0785              3067.4838              3143.6514
 Red. masses --      1.0843                 1.0330                 1.1046
 Frc consts  --      5.7728                 5.7267                 6.4315
 IR Inten    --     58.7640                21.1061                 8.9683

                     37                     38                     39
                      A                      A                      A
 Frequencies --   3163.0114              3526.2821              3612.5465
 Red. masses --      1.1055                 1.0502                 1.0971
 Frc consts  --      6.5162                 7.6939                 8.4357
 IR Inten    --     10.4091                82.5527                60.7181

 - Thermochemistry -
 -------------------
 Temperature   298.150 Kelvin.  Pressure   1.00000 Atm.
 Atom     1 has atomic number  6 and mass  12.00000

 Molecular mass:   188.95150 amu.
 Principal axes and moments of inertia in atomic units:
                           1         2         3
     Eigenvalues --  1670.867182212.953002593.77661
           X            0.99884   0.00985   0.04718
           Y           -0.00523   0.99526  -0.09715
           Z           -0.04791   0.09679   0.99415
 This molecule is an asymmetric top.
 Rotational symmetry number  1.
 Warning -- assumption of classical behavior for rotation
           may cause significant error
 Rotational temperatures (Kelvin)      0.05184     0.03914     0.03339
 Rotational constants (GHZ):           1.08012     0.81554     0.69580
    1 imaginary frequencies ignored.
 Zero-point vibrational energy     266177.6 (Joules/Mol)
                                   63.61796 (Kcal/Mol)
 Warning -- explicit consideration of  14 degrees of freedom as
           vibrations may cause significant error
 Vibrational temperatures:     90.19    96.10   163.35   213.45   253.81
          (Kelvin)            287.34   317.77   345.14   387.38   443.70
                              490.76   512.43   627.76   769.75   914.83
                              966.98  1170.44  1248.37  1431.79  1460.02
                             1466.05  1563.82  1736.84  1768.01  1929.24
                             1973.06  2083.11  2114.21  2146.05  2164.08
                             2364.04  2444.16  4325.08  4413.43  4523.01
                             4550.87  5073.53  5197.65

 Zero-point correction=                           0.101382 (Hartree/Particle)
 Thermal correction to Energy=                    0.112048
 Thermal correction to Enthalpy=                  0.112992
 Thermal correction to Gibbs Free Energy=         0.063878
 Sum of electronic and zero-point Energies=          -1666.502513
 Sum of electronic and thermal Energies=             -1666.491847
 Sum of electronic and thermal Enthalpies=           -1666.490902
 Sum of electronic and thermal Free Energies=        -1666.540017

                     E (Thermal)             CV                S
                      KCal/Mol        Cal/Mol-Kelvin    Cal/Mol-Kelvin
 Total                   70.311             35.600            103.369
 Electronic               0.000              0.000              0.000
 Translational            0.889              2.981             41.615
 Rotational               0.889              2.981             30.640
 Vibrational             68.534             29.639             31.115
 Vibration     1          0.597              1.972              4.371
 Vibration     2          0.598              1.970              4.246
 Vibration     3          0.607              1.938              3.208
 Vibration     4          0.618              1.904              2.693
 Vibration     5          0.628              1.871              2.366
 Vibration     6          0.638              1.840              2.136
 Vibration     7          0.648              1.809              1.952
 Vibration     8          0.657              1.779              1.804
 Vibration     9          0.674              1.730              1.601
 Vibration    10          0.698              1.658              1.371
 Vibration    11          0.721              1.593              1.207
 Vibration    12          0.732              1.563              1.139
 Vibration    13          0.797              1.391              0.838
 Vibration    14          0.890              1.173              0.576

 Optimization completed.
    -- Stationary point found.
 Normal termination of Gaussian 16 at Sun Feb 28 12:51:18 2021.
