 Gaussian 16, Revision A.03,
 Gaussian 16:  ES64L-G16RevA.03 25-Dec-2016

 ----------------------------------------------------------------------
 # wB97XD def2tzvp, opt=(ts, noeigen, calcfc, maxcycles=70, maxstep=8),
  freq=noraman, scrf=(iefpcm, solvent=water)
 ----------------------------------------------------------------------

 ------------------------
 1_iteration/TS-957-1.out
 ------------------------
 Symbolic Z-matrix:
 Charge =  0 Multiplicity = 1

 SCF Done:  E(RwB97XD) =  -3875.29935653     A.U. after   15 cycles
 SCF Done:  E(RwB97XD) =  -3875.29963233     A.U. after   11 cycles
 SCF Done:  E(RwB97XD) =  -3875.29977676     A.U. after   12 cycles
 SCF Done:  E(RwB97XD) =  -3875.29984417     A.U. after   10 cycles
 SCF Done:  E(RwB97XD) =  -3875.29981609     A.U. after   11 cycles
 SCF Done:  E(RwB97XD) =  -3875.29985534     A.U. after   10 cycles
 SCF Done:  E(RwB97XD) =  -3875.29985608     A.U. after    8 cycles
 SCF Done:  E(RwB97XD) =  -3875.29985614     A.U. after    7 cycles
 SCF Done:  E(RwB97XD) =  -3875.29985614     A.U. after    6 cycles
 Optimization completed.
    -- Stationary point found.
 Normal termination of Gaussian 16 at Sun Feb 28 15:16:40 2021.

 ---------------------------------------------------------------------
 #N Geom=AllCheck Guess=TCheck SCRF=Check GenChk RwB97XD/def2TZVP Freq
 ---------------------------------------------------------------------

 Structure from the checkpoint file:  "/beegfs/scratch/user/q/tla25/Gau-90310.chk"
 ------------------------
 1_iteration/TS-957-1.out
 ------------------------
 Charge =  0 Multiplicity = 1

                         Standard orientation:
 ---------------------------------------------------------------------
 Center     Atomic      Atomic             Coordinates (Angstroms)
 Number     Number       Type             X           Y           Z
 ---------------------------------------------------------------------
      1          6           0       -0.584623    0.514924   -0.345379
      2          6           0       -1.620516   -0.414733    0.103017
      3          8           0       -1.350561   -1.340477    0.880200
      4          6           0        0.747993    0.256463   -0.109278
      5          6           0        0.560585    1.320401    2.520877
      6          1           0       -0.393708    1.614234    2.079925
      7          1           0        0.412690    1.149279    3.587639
      8          1           0        1.280850    2.123935    2.381759
      9          7           0        1.027048    0.123030    1.844198
     10          1           0        0.410170   -0.669085    2.005552
     11          1           0        1.982691   -0.122975    2.071962
     12         17           0        1.920749    1.464792   -0.535204
     13         35           0        1.459248   -1.524511   -0.503709
     14         17           0       -1.091816    2.072936   -0.961190
     15          7           0       -2.879591   -0.216310   -0.332113
     16          6           0       -3.974557   -1.050243    0.105062
     17          1           0       -3.060422    0.526075   -0.982617
     18          1           0       -3.854034   -2.080116   -0.236954
     19          1           0       -4.045682   -1.058603    1.193755
     20          1           0       -4.899092   -0.650334   -0.304509
 ---------------------------------------------------------------------

 SCF Done:  E(RwB97XD) =  -3875.29985614     A.U. after    1 cycles

 The electronic state is 1-A.
 Alpha  occ. eigenvalues -- -483.13674-101.71885-101.70196 -62.68518 -56.47654
 Alpha  occ. eigenvalues --  -56.47269 -56.47259 -19.21405 -14.48080 -14.45592
 Alpha  occ. eigenvalues --  -10.44700 -10.39216 -10.32820 -10.31672 -10.31090
 Alpha  occ. eigenvalues --   -9.60452  -9.58710  -8.82623  -7.35138  -7.34217
 Alpha  occ. eigenvalues --   -7.34172  -7.33367  -7.32497  -7.32461  -6.64832
 Alpha  occ. eigenvalues --   -6.63615  -6.63580  -2.75203  -2.74863  -2.74836
 Alpha  occ. eigenvalues --   -2.73852  -2.73852  -1.14259  -1.04455  -1.02615
 Alpha  occ. eigenvalues --   -1.00457  -0.95628  -0.89621  -0.83532  -0.80393
 Alpha  occ. eigenvalues --   -0.78745  -0.70134  -0.66702  -0.63243  -0.60270
 Alpha  occ. eigenvalues --   -0.57598  -0.57290  -0.55583  -0.54297  -0.53389
 Alpha  occ. eigenvalues --   -0.52279  -0.49290  -0.48332  -0.47815  -0.47630
 Alpha  occ. eigenvalues --   -0.46931  -0.43123  -0.42818  -0.40950  -0.40093
 Alpha  occ. eigenvalues --   -0.37869  -0.37266  -0.34704  -0.34177  -0.28167
 Alpha virt. eigenvalues --    0.01524   0.04549   0.07213   0.10932   0.13062
 Alpha virt. eigenvalues --    0.13836   0.15010   0.15405   0.16743   0.17317
 Alpha virt. eigenvalues --    0.17885   0.20263   0.20632   0.20715   0.21725

 Mulliken charges:
               1
     1  C   -0.335870
     2  C    0.420131
     3  O   -0.548690
     4  C    0.215508
     5  C   -0.290608
     6  H    0.153903
     7  H    0.156404
     8  H    0.154635
     9  N   -0.352036
    10  H    0.283506
    11  H    0.287718
    12  Cl  -0.033804
    13  Br  -0.076188
    14  Cl  -0.134337
    15  N   -0.318248
    16  C   -0.245948
    17  H    0.256202
    18  H    0.131530
    19  H    0.131591
    20  H    0.144601
 Sum of Mulliken charges =  -0.00000

 Dipole moment (field-independent basis, Debye):
    X=             -0.2358    Y=              1.9907    Z=              3.4440  Tot=              3.9849
 Quadrupole moment (field-independent basis, Debye-Ang):
   XX=            -77.1168   YY=            -96.6079   ZZ=            -83.4500
   XY=             -0.5968   XZ=              9.5420   YZ=              4.5941

  Exact polarizability: 205.701  -2.865 179.739  13.862  -4.259 159.714
 Approx polarizability: 158.965  -3.862 154.547  10.230  -8.050 137.041

 ******    1 imaginary frequencies (negative Signs) ******

                      1                      2                      3
                      A                      A                      A
 Frequencies --   -384.6191                47.1153                76.0658
 Red. masses --      5.8463                 4.0097                 2.0690
 Frc consts  --      0.5096                 0.0052                 0.0071
 IR Inten    --    655.7352                 6.1243                 5.5047

                      4                      5                      6
                      A                      A                      A
 Frequencies --     83.4980                89.1170               123.3421
 Red. masses --      1.8767                 3.6641                 4.1515
 Frc consts  --      0.0077                 0.0171                 0.0372
 IR Inten    --      4.0465                11.2244                 4.7415

                      7                      8                      9
                      A                      A                      A
 Frequencies --    126.4195               145.8596               154.7227
 Red. masses --      2.6885                 2.7810                 3.4607
 Frc consts  --      0.0253                 0.0349                 0.0488
 IR Inten    --      7.5390                16.6561                 8.7927

                     10                     11                     12
                      A                      A                      A
 Frequencies --    179.7770               218.0016               224.1427
 Red. masses --      1.6727                 9.6178                15.0556
 Frc consts  --      0.0319                 0.2693                 0.4457
 IR Inten    --     10.0741                 7.1549                 3.4753

                     13                     14                     15
                      A                      A                      A
 Frequencies --    243.3513               266.8599               287.6282
 Red. masses --      3.9727                 5.9324                 4.7542
 Frc consts  --      0.1386                 0.2489                 0.2317
 IR Inten    --      4.2876                30.2243                13.8527

                     16                     17                     18
                      A                      A                      A
 Frequencies --    316.6656               350.0422               421.8706
 Red. masses --      5.2056                 7.5199                 1.2293
 Frc consts  --      0.3076                 0.5429                 0.1289
 IR Inten    --     29.0209                18.5839                74.6651

                     19                     20                     21
                      A                      A                      A
 Frequencies --    443.7227               511.6603               631.0472
 Red. masses --      9.2228                 6.7852                 1.7382
 Frc consts  --      1.0699                 1.0466                 0.4078
 IR Inten    --     24.8617               137.8725                17.6461

                     22                     23                     24
                      A                      A                      A
 Frequencies --    724.9884               755.7169               784.8903
 Red. masses --      3.4636                 7.5777                 8.6080
 Frc consts  --      1.0726                 2.5498                 3.1244
 IR Inten    --    188.8394               170.4239                64.6788

                     25                     26                     27
                      A                      A                      A
 Frequencies --    866.6291               978.2661              1022.5123
 Red. masses --      4.4810                 1.0934                 2.4291
 Frc consts  --      1.9829                 0.6165                 1.4963
 IR Inten    --     37.8078               101.9407                30.4378

                     28                     29                     30
                      A                      A                      A
 Frequencies --   1053.3468              1089.0434              1152.3080
 Red. masses --      1.3907                 4.7756                 4.0356
 Frc consts  --      0.9091                 3.3371                 3.1571
 IR Inten    --     71.7422                42.0001                 6.8091

                     31                     32                     33
                      A                      A                      A
 Frequencies --   1157.9406              1192.5342              1193.6123
 Red. masses --      1.4164                 1.7182                 1.4312
 Frc consts  --      1.1190                 1.4397                 1.2013
 IR Inten    --      2.0153                15.8250                20.9446

                     34                     35                     36
                      A                      A                      A
 Frequencies --   1305.5275              1346.4829              1423.9598
 Red. masses --      2.1725                 1.3191                 4.3046
 Frc consts  --      2.1816                 1.4090                 5.1426
 IR Inten    --    386.7604                10.1648               741.6397

                     37                     38                     39
                      A                      A                      A
 Frequencies --   1459.0569              1460.6672              1477.2208
 Red. masses --      1.2212                 1.3432                 1.0500
 Frc consts  --      1.5318                 1.6884                 1.3500
 IR Inten    --     62.0114                29.7759                14.4717

                     40                     41                     42
                      A                      A                      A
 Frequencies --   1488.5010              1502.6562              1505.1723
 Red. masses --      1.0416                 1.0349                 1.0681
 Frc consts  --      1.3597                 1.3768                 1.4257
 IR Inten    --     19.6939                 4.3829                11.3427

                     43                     44                     45
                      A                      A                      A
 Frequencies --   1568.4337              1629.6518              1666.0383
 Red. masses --      2.1248                 1.2780                 4.0494
 Frc consts  --      3.0796                 1.9997                 6.6224
 IR Inten    --    683.0219               224.0995               258.9322

                     46                     47                     48
                      A                      A                      A
 Frequencies --   3053.9014              3060.9274              3113.4804
 Red. masses --      1.0361                 1.0338                 1.1040
 Frc consts  --      5.6932                 5.7067                 6.3053
 IR Inten    --     69.0159                36.7571                37.6142

                     49                     50                     51
                      A                      A                      A
 Frequencies --   3131.9128              3164.1552              3166.3021
 Red. masses --      1.1041                 1.1047                 1.1019
 Frc consts  --      6.3806                 6.5163                 6.5085
 IR Inten    --     13.0068                13.5694                20.5556

                     52                     53                     54
                      A                      A                      A
 Frequencies --   3486.9405              3602.1396              3682.8719
 Red. masses --      1.0541                 1.0945                 1.0781
 Frc consts  --      7.5509                 8.3675                 8.6155
 IR Inten    --     56.5005               110.3103               100.1623

 - Thermochemistry -
 -------------------
 Temperature   298.150 Kelvin.  Pressure   1.00000 Atm.
 Atom     1 has atomic number  6 and mass  12.00000

 Molecular mass:   261.92753 amu.
 Principal axes and moments of inertia in atomic units:
                           1         2         3
     Eigenvalues --  2585.532893718.795184631.21656
           X            0.99396   0.10654   0.02614
           Y           -0.10726   0.99384   0.02794
           Z           -0.02300  -0.03058   0.99927
 This molecule is an asymmetric top.
 Rotational symmetry number  1.
 Warning -- assumption of classical behavior for rotation
           may cause significant error
 Rotational temperatures (Kelvin)      0.03350     0.02329     0.01870
 Rotational constants (GHZ):           0.69802     0.48530     0.38969
    1 imaginary frequencies ignored.
 Zero-point vibrational energy     384053.3 (Joules/Mol)
                                   91.79094 (Kcal/Mol)
 Warning -- explicit consideration of  19 degrees of freedom as
           vibrations may cause significant error
 Vibrational temperatures:     67.79   109.44   120.14   128.22   177.46
          (Kelvin)            181.89   209.86   222.61   258.66   313.66
                              322.49   350.13   383.95   413.83   455.61
                              503.63   606.98   638.42   736.17   907.94
                             1043.10  1087.31  1129.28  1246.89  1407.51
                             1471.17  1515.53  1566.89  1657.91  1666.02
                             1715.79  1717.34  1878.36  1937.29  2048.76
                             2099.26  2101.57  2125.39  2141.62  2161.99
                             2165.61  2256.63  2344.71  2397.06  4393.88
                             4403.99  4479.60  4506.12  4552.51  4555.60
                             5016.93  5182.68  5298.83

 Zero-point correction=                           0.146278 (Hartree/Particle)
 Thermal correction to Energy=                    0.160252
 Thermal correction to Enthalpy=                  0.161196
 Thermal correction to Gibbs Free Energy=         0.103958
 Sum of electronic and zero-point Energies=          -3875.153578
 Sum of electronic and thermal Energies=             -3875.139604
 Sum of electronic and thermal Enthalpies=           -3875.138660
 Sum of electronic and thermal Free Energies=        -3875.195898

                     E (Thermal)             CV                S
                      KCal/Mol        Cal/Mol-Kelvin    Cal/Mol-Kelvin
 Total                  100.560             46.365            120.467
 Electronic               0.000              0.000              0.000
 Translational            0.889              2.981             42.588
 Rotational               0.889              2.981             32.165
 Vibrational             98.782             40.403             45.714
 Vibration     1          0.595              1.979              4.935
 Vibration     2          0.599              1.965              3.990
 Vibration     3          0.600              1.961              3.807
 Vibration     4          0.602              1.957              3.679
 Vibration     5          0.610              1.930              3.047
 Vibration     6          0.611              1.927              3.000
 Vibration     7          0.617              1.907              2.726
 Vibration     8          0.620              1.897              2.613
 Vibration     9          0.629              1.867              2.331
 Vibration    10          0.646              1.814              1.976
 Vibration    11          0.649              1.804              1.925
 Vibration    12          0.659              1.774              1.778
 Vibration    13          0.672              1.734              1.616
 Vibration    14          0.685              1.697              1.488
 Vibration    15          0.704              1.642              1.327
 Vibration    16          0.727              1.575              1.166
 Vibration    17          0.784              1.423              0.886
 Vibration    18          0.803              1.375              0.815
 Vibration    19          0.867              1.224              0.630

 Optimization completed.
    -- Stationary point found.
 Normal termination of Gaussian 16 at Sun Feb 28 15:37:40 2021.
