 Gaussian 16, Revision A.03,
 Gaussian 16:  ES64L-G16RevA.03 25-Dec-2016

 ----------------------------------------------------------------------
 # wB97XD def2tzvp, opt=(ts, noeigen, calcfc, maxcycles=70, maxstep=5),
  freq=noraman, scrf=(iefpcm, solvent=water)
 ----------------------------------------------------------------------

 ------------------------
 2_iteration/TS-920-2.out
 ------------------------
 Symbolic Z-matrix:
 Charge =  0 Multiplicity = 1

 SCF Done:  E(RwB97XD) =  -1477.37731007     A.U. after   15 cycles
 SCF Done:  E(RwB97XD) =  -1477.37729718     A.U. after   12 cycles
 SCF Done:  E(RwB97XD) =  -1477.37723499     A.U. after   12 cycles
 SCF Done:  E(RwB97XD) =  -1477.37733768     A.U. after   12 cycles
 SCF Done:  E(RwB97XD) =  -1477.37732164     A.U. after   12 cycles
 SCF Done:  E(RwB97XD) =  -1477.37734772     A.U. after   12 cycles
 SCF Done:  E(RwB97XD) =  -1477.37734821     A.U. after    9 cycles
 SCF Done:  E(RwB97XD) =  -1477.37734838     A.U. after    8 cycles
 SCF Done:  E(RwB97XD) =  -1477.37734834     A.U. after    8 cycles
 SCF Done:  E(RwB97XD) =  -1477.37734844     A.U. after    7 cycles
 Optimization completed.
    -- Stationary point found.
 Normal termination of Gaussian 16 at Sun Feb 28 23:15:23 2021.

 ---------------------------------------------------------------------
 #N Geom=AllCheck Guess=TCheck SCRF=Check GenChk RwB97XD/def2TZVP Freq
 ---------------------------------------------------------------------

 Structure from the checkpoint file:  "/beegfs/scratch/user/q/tla25/Gau-115429.chk"
 ------------------------
 2_iteration/TS-920-2.out
 ------------------------
 Charge =  0 Multiplicity = 1

                         Standard orientation:
 ---------------------------------------------------------------------
 Center     Atomic      Atomic             Coordinates (Angstroms)
 Number     Number       Type             X           Y           Z
 ---------------------------------------------------------------------
      1          6           0        0.899246    0.620624   -0.348646
      2          6           0       -0.341456    1.307370   -0.112660
      3          8           0       -0.406202    2.525469    0.050243
      4          6           0        1.185002   -0.736714   -0.214014
      5          6           0        1.222379   -0.387332    2.639080
      6          1           0        1.780056   -0.211899    3.559114
      7          1           0        0.799928    0.560790    2.301100
      8          1           0        0.411976   -1.084376    2.841555
      9          7           0        2.069834   -0.917584    1.582561
     10          1           0        2.917181   -0.372262    1.475278
     11          1           0        2.334221   -1.882484    1.741143
     12         17           0        2.569852   -1.354745   -1.141378
     13          6           0        0.156478   -1.820788   -0.053516
     14          1           0       -0.585292   -1.564560    0.697146
     15          1           0       -0.353814   -1.985675   -1.001122
     16          1           0        0.649748   -2.746917    0.231989
     17         17           0        2.276541    1.696644   -0.526427
     18          6           0       -1.640716    0.553852   -0.130936
     19          6           0       -2.410186    0.480395    1.024807
     20          6           0       -3.637257   -0.164099    1.003766
     21          6           0       -4.114092   -0.714093   -0.178741
     22          6           0       -3.360027   -0.617456   -1.339555
     23          6           0       -2.123420    0.009790   -1.314688
     24          1           0       -2.040119    0.916918    1.944553
     25          1           0       -4.224377   -0.234162    1.910627
     26          1           0       -5.074480   -1.213376   -0.195787
     27          1           0       -3.732924   -1.035566   -2.265912
     28          1           0       -1.525715    0.071312   -2.216247
 ---------------------------------------------------------------------

 SCF Done:  E(RwB97XD) =  -1477.37734844     A.U. after    1 cycles

 The electronic state is 1-A.
 Alpha  occ. eigenvalues -- -101.70415-101.69071 -19.22183 -14.48256 -10.41677
 Alpha  occ. eigenvalues --  -10.37341 -10.32627 -10.31884 -10.30319 -10.29681
 Alpha  occ. eigenvalues --  -10.29603 -10.29565 -10.29451 -10.29423 -10.29351
 Alpha  occ. eigenvalues --   -9.59014  -9.57609  -7.33657  -7.32806  -7.32746
 Alpha  occ. eigenvalues --   -7.32243  -7.31405  -7.31371  -1.13261  -1.04376
 Alpha  occ. eigenvalues --   -0.99516  -0.97157  -0.94528  -0.88254  -0.85820
 Alpha  occ. eigenvalues --   -0.85604  -0.80555  -0.79042  -0.73644  -0.71048
 Alpha  occ. eigenvalues --   -0.69225  -0.63641  -0.63261  -0.59814  -0.58380
 Alpha  occ. eigenvalues --   -0.57680  -0.56368  -0.55506  -0.55106  -0.53502
 Alpha  occ. eigenvalues --   -0.51485  -0.51370  -0.50776  -0.49611  -0.48818
 Alpha  occ. eigenvalues --   -0.48024  -0.47492  -0.45751  -0.44975  -0.44479
 Alpha  occ. eigenvalues --   -0.43189  -0.42135  -0.40879  -0.39063  -0.38104
 Alpha  occ. eigenvalues --   -0.35086  -0.34178  -0.32595  -0.29120
 Alpha virt. eigenvalues --    0.01125   0.04660   0.05186   0.07371   0.10314
 Alpha virt. eigenvalues --    0.11994   0.12838   0.13515   0.14299   0.14849
 Alpha virt. eigenvalues --    0.15876   0.16615   0.17516   0.18239   0.18951

 Mulliken charges:
               1
     1  C   -0.135762
     2  C    0.162802
     3  O   -0.452534
     4  C    0.139506
     5  C   -0.310080
     6  H    0.162843
     7  H    0.152094
     8  H    0.164406
     9  N   -0.364980
    10  H    0.281498
    11  H    0.290624
    12  Cl  -0.089296
    13  C   -0.383846
    14  H    0.160053
    15  H    0.170568
    16  H    0.164735
    17  Cl  -0.158758
    18  C    0.177081
    19  C   -0.214370
    20  C   -0.130837
    21  C   -0.149865
    22  C   -0.105363
    23  C   -0.282603
    24  H    0.151833
    25  H    0.146140
    26  H    0.147073
    27  H    0.147021
    28  H    0.160018
 Sum of Mulliken charges =  -0.00000

 Dipole moment (field-independent basis, Debye):
    X=              0.6140    Y=             -9.3175    Z=              5.2921  Tot=             10.7331
 Quadrupole moment (field-independent basis, Debye-Ang):
   XX=            -92.7135   YY=           -115.8624   ZZ=            -88.8087
   XY=             -0.1499   XZ=             10.7332   YZ=             -2.4117

  Exact polarizability: 263.413   2.465 220.973  -3.805   3.232 220.813
 Approx polarizability: 203.964   4.403 189.204  -5.245   5.133 189.779

 ******    1 imaginary frequencies (negative Signs) ******

                      1                      2                      3
                      A                      A                      A
 Frequencies --   -359.8302                30.1125                59.6432
 Red. masses --      5.5153                 4.5234                 3.6381
 Frc consts  --      0.4207                 0.0024                 0.0076
 IR Inten    --    760.4141                 2.4661                 0.0161

                      4                      5                      6
                      A                      A                      A
 Frequencies --     70.3315                75.6721                78.6262
 Red. masses --      4.4653                 6.8259                 3.3354
 Frc consts  --      0.0130                 0.0230                 0.0121
 IR Inten    --      0.3355                 2.1786                 2.2039

                      7                      8                      9
                      A                      A                      A
 Frequencies --    131.6481               171.3822               184.2819
 Red. masses --      2.1279                 3.5055                 1.5769
 Frc consts  --      0.0217                 0.0607                 0.0316
 IR Inten    --     10.4871                 5.7313                 2.4217

                     10                     11                     12
                      A                      A                      A
 Frequencies --    206.4240               226.1226               242.7873
 Red. masses --      6.1450                 6.2379                 4.2406
 Frc consts  --      0.1543                 0.1879                 0.1473
 IR Inten    --      0.5302                 4.6615                 3.4542

                     13                     14                     15
                      A                      A                      A
 Frequencies --    257.9817               291.8393               300.1162
 Red. masses --      5.1699                 1.4809                 4.1941
 Frc consts  --      0.2027                 0.0743                 0.2226
 IR Inten    --      3.1815                 4.1366                34.6812

                     16                     17                     18
                      A                      A                      A
 Frequencies --    339.7541               356.4604               380.1044
 Red. masses --      2.3895                 6.5836                 3.2866
 Frc consts  --      0.1625                 0.4929                 0.2798
 IR Inten    --      7.8092                 5.5122                 7.5497

                     19                     20                     21
                      A                      A                      A
 Frequencies --    405.2061               417.9907               481.2899
 Red. masses --      6.2204                 2.8679                 3.8350
 Frc consts  --      0.6018                 0.2952                 0.5234
 IR Inten    --      7.2149                 0.8700                15.7868

                     22                     23                     24
                      A                      A                      A
 Frequencies --    537.1372               579.7996               634.3746
 Red. masses --      5.0603                 4.1764                 5.8718
 Frc consts  --      0.8602                 0.8272                 1.3922
 IR Inten    --     61.6946                16.9143                 1.7628

                     25                     26                     27
                      A                      A                      A
 Frequencies --    643.5687               662.9045               727.4027
 Red. masses --      1.6148                 4.5250                 1.5686
 Frc consts  --      0.3941                 1.1716                 0.4890
 IR Inten    --     33.8712               145.7739               108.0789

                     28                     29                     30
                      A                      A                      A
 Frequencies --    758.1283               770.8603               811.4170
 Red. masses --      4.3856                 3.9180                 3.8088
 Frc consts  --      1.4851                 1.3717                 1.4775
 IR Inten    --    103.7175                25.5268               103.5971

                     31                     32                     33
                      A                      A                      A
 Frequencies --    852.5362               881.2684               963.5567
 Red. masses --      4.3796                 1.2496                 1.4942
 Frc consts  --      1.8755                 0.5718                 0.8173
 IR Inten    --     95.0800                 0.2136                18.4065

                     34                     35                     36
                      A                      A                      A
 Frequencies --    990.8297              1011.5414              1014.4293
 Red. masses --      1.0841                 1.2860                 1.3847
 Frc consts  --      0.6270                 0.7753                 0.8396
 IR Inten    --     51.3900                89.4525                 1.3568

                     37                     38                     39
                      A                      A                      A
 Frequencies --   1026.1334              1033.1525              1036.0948
 Red. masses --      6.1340                 1.3264                 2.1847
 Frc consts  --      3.8054                 0.8342                 1.3818
 IR Inten    --      1.2786                 0.8085                 4.7982

                     40                     41                     42
                      A                      A                      A
 Frequencies --   1059.6935              1067.6794              1088.0671
 Red. masses --      2.0379                 1.6451                 3.9996
 Frc consts  --      1.3483                 1.1049                 2.7898
 IR Inten    --     34.5249                45.6684                 3.8540

                     43                     44                     45
                      A                      A                      A
 Frequencies --   1108.5082              1113.3955              1177.5389
 Red. masses --      1.9552                 1.5855                 4.1614
 Frc consts  --      1.4155                 1.1580                 3.3997
 IR Inten    --     39.6298                32.4645               107.0024

                     46                     47                     48
                      A                      A                      A
 Frequencies --   1184.8299              1203.0328              1208.6514
 Red. masses --      1.1521                 1.4088                 1.1231
 Frc consts  --      0.9529                 1.2013                 0.9666
 IR Inten    --      0.7734                14.6716                 1.5490

                     49                     50                     51
                      A                      A                      A
 Frequencies --   1319.9537              1340.7225              1344.7269
 Red. masses --      4.4033                 1.6002                 3.4409
 Frc consts  --      4.5201                 1.6948                 3.6659
 IR Inten    --     34.1852                84.1737               388.0479

                     52                     53                     54
                      A                      A                      A
 Frequencies --   1361.0734              1419.3209              1432.9096
 Red. masses --      1.4532                 1.6410                 1.7909
 Frc consts  --      1.5861                 1.9477                 2.1665
 IR Inten    --     14.8489               514.7018               425.8737

                     55                     56                     57
                      A                      A                      A
 Frequencies --   1456.6041              1486.8484              1490.0037
 Red. masses --      1.1831                 1.0559                 1.6512
 Frc consts  --      1.4789                 1.3753                 2.1599
 IR Inten    --     24.4176                 8.6610               114.0257

                     58                     59                     60
                      A                      A                      A
 Frequencies --   1490.0860              1496.7233              1506.0119
 Red. masses --      1.5785                 1.0995                 1.0369
 Frc consts  --      2.0650                 1.4512                 1.3856
 IR Inten    --     42.4097                84.6514                18.6591

                     61                     62                     63
                      A                      A                      A
 Frequencies --   1541.9413              1645.4755              1646.4927
 Red. masses --      2.3300                 1.5169                 2.6848
 Frc consts  --      3.2640                 2.4199                 4.2882
 IR Inten    --      6.8924               288.4268               167.0685

                     64                     65                     66
                      A                      A                      A
 Frequencies --   1653.4825              1674.9916              3063.1090
 Red. masses --      7.3268                 5.8512                 1.0341
 Frc consts  --     11.8022                 9.6720                 5.7164
 IR Inten    --    245.5619                 0.6864                28.3865

                     67                     68                     69
                      A                      A                      A
 Frequencies --   3091.5210              3135.1410              3164.3140
 Red. masses --      1.0364                 1.1036                 1.1050
 Frc consts  --      5.8359                 6.3910                 6.5186
 IR Inten    --      7.0769                12.8705                15.4302

                     70                     71                     72
                      A                      A                      A
 Frequencies --   3167.4401              3191.3796              3193.7185
 Red. masses --      1.1024                 1.1025                 1.0867
 Frc consts  --      6.5161                 6.6157                 6.5304
 IR Inten    --      8.7811                 6.0299                 2.5070

                     73                     74                     75
                      A                      A                      A
 Frequencies --   3197.4874              3205.3803              3213.6909
 Red. masses --      1.0882                 1.0915                 1.0952
 Frc consts  --      6.5549                 6.6075                 6.6645
 IR Inten    --      0.5714                 7.9523                32.7172

                     76                     77                     78
                      A                      A                      A
 Frequencies --   3223.3904              3530.4485              3614.5702
 Red. masses --      1.0989                 1.0505                 1.0965
 Frc consts  --      6.7273                 7.7142                 8.4407
 IR Inten    --     17.7038                61.8406                54.2395

 - Thermochemistry -
 -------------------
 Temperature   298.150 Kelvin.  Pressure   1.00000 Atm.
 Atom     1 has atomic number  6 and mass  12.00000

 Molecular mass:   245.03742 amu.
 Principal axes and moments of inertia in atomic units:
                           1         2         3
     Eigenvalues --  2445.681875538.173465890.30563
           X            0.99974   0.00459   0.02245
           Y           -0.00380   0.99938  -0.03501
           Z           -0.02260   0.03492   0.99913
 This molecule is an asymmetric top.
 Rotational symmetry number  1.
 Warning -- assumption of classical behavior for rotation
           may cause significant error
 Rotational temperatures (Kelvin)      0.03542     0.01564     0.01470
 Rotational constants (GHZ):           0.73793     0.32587     0.30639
    1 imaginary frequencies ignored.
 Zero-point vibrational energy     581105.6 (Joules/Mol)
                                  138.88757 (Kcal/Mol)
 Warning -- explicit consideration of  22 degrees of freedom as
           vibrations may cause significant error
 Vibrational temperatures:     43.33    85.81   101.19   108.88   113.13
          (Kelvin)            189.41   246.58   265.14   297.00   325.34
                              349.32   371.18   419.89   431.80   488.83
                              512.87   546.89   583.00   601.40   692.47
                              772.82   834.20   912.72   925.95   953.77
                             1046.57  1090.78  1109.10  1167.45  1226.61
                             1267.95  1386.34  1425.58  1455.38  1459.54
                             1476.38  1486.48  1490.71  1524.66  1536.15
                             1565.49  1594.90  1601.93  1694.22  1704.71
                             1730.90  1738.98  1899.12  1929.00  1934.76
                             1958.28  2042.09  2061.64  2095.73  2139.24
                             2143.78  2143.90  2153.45  2166.82  2218.51
                             2367.47  2368.94  2378.99  2409.94  4407.13
                             4448.01  4510.77  4552.74  4557.24  4591.68
                             4595.05  4600.47  4611.83  4623.78  4637.74
                             5079.53  5200.56

 Zero-point correction=                           0.221331 (Hartree/Particle)
 Thermal correction to Energy=                    0.236663
 Thermal correction to Enthalpy=                  0.237607
 Thermal correction to Gibbs Free Energy=         0.177646
 Sum of electronic and zero-point Energies=          -1477.156017
 Sum of electronic and thermal Energies=             -1477.140686
 Sum of electronic and thermal Enthalpies=           -1477.139742
 Sum of electronic and thermal Free Energies=        -1477.199702

                     E (Thermal)             CV                S
                      KCal/Mol        Cal/Mol-Kelvin    Cal/Mol-Kelvin
 Total                  148.508             56.095            126.198
 Electronic               0.000              0.000              0.000
 Translational            0.889              2.981             42.390
 Rotational               0.889              2.981             32.745
 Vibrational            146.731             50.133             51.063
 Vibration     1          0.594              1.984              5.822
 Vibration     2          0.597              1.974              4.469
 Vibration     3          0.598              1.968              4.144
 Vibration     4          0.599              1.965              4.000
 Vibration     5          0.600              1.964              3.925
 Vibration     6          0.612              1.922              2.922
 Vibration     7          0.626              1.878              2.420
 Vibration     8          0.631              1.861              2.285
 Vibration     9          0.641              1.831              2.075
 Vibration    10          0.650              1.801              1.910
 Vibration    11          0.659              1.775              1.782
 Vibration    12          0.667              1.749              1.675
 Vibration    13          0.687              1.689              1.463
 Vibration    14          0.693              1.673              1.416
 Vibration    15          0.720              1.596              1.213
 Vibration    16          0.732              1.562              1.138
 Vibration    17          0.750              1.513              1.039
 Vibration    18          0.770              1.459              0.944
 Vibration    19          0.781              1.431              0.899
 Vibration    20          0.838              1.292              0.707
 Vibration    21          0.892              1.168              0.571
 Vibration    22          0.936              1.075              0.486

 Optimization completed.
    -- Stationary point found.
 Normal termination of Gaussian 16 at Mon Mar  1 00:13:36 2021.
