 Gaussian 16, Revision A.03,
 Gaussian 16:  ES64L-G16RevA.03 25-Dec-2016

 ----------------------------------------------------------------------
 # wB97XD def2tzvp, opt=(ts, noeigen, calcfc, maxcycles=70, maxstep=8),
  freq=noraman, scrf=(iefpcm, solvent=water)
 ----------------------------------------------------------------------

 ------------------------
 1_iteration/TS-981-1.out
 ------------------------
 Symbolic Z-matrix:
 Charge =  0 Multiplicity = 1

 SCF Done:  E(RwB97XD) =  -1340.99760510     A.U. after   15 cycles
 SCF Done:  E(RwB97XD) =  -1340.99760505     A.U. after    8 cycles
 Optimization completed.
    -- Stationary point found.
 Normal termination of Gaussian 16 at Sun Feb 28 13:58:20 2021.

 ---------------------------------------------------------------------
 #N Geom=AllCheck Guess=TCheck SCRF=Check GenChk RwB97XD/def2TZVP Freq
 ---------------------------------------------------------------------

 Structure from the checkpoint file:  "/beegfs/scratch/user/q/tla25/Gau-115389.chk"
 ------------------------
 1_iteration/TS-981-1.out
 ------------------------
 Charge =  0 Multiplicity = 1

                         Standard orientation:
 ---------------------------------------------------------------------
 Center     Atomic      Atomic             Coordinates (Angstroms)
 Number     Number       Type             X           Y           Z
 ---------------------------------------------------------------------
      1          6           0       -0.163992    0.869507    0.108645
      2          6           0       -1.601819    0.674165   -0.019809
      3          8           0       -2.367935    1.652559   -0.011904
      4          6           0        0.861738   -0.025946   -0.168512
      5          6           0        0.702932   -1.233080    2.208315
      6          1           0        1.184107   -1.399857    3.168997
      7          1           0       -0.117952   -0.525560    2.320166
      8          1           0        0.329138   -2.175373    1.816017
      9          7           0        1.659435   -0.661270    1.258947
     10          1           0        2.138368    0.137436    1.664429
     11          1           0        2.368992   -1.331091    0.974566
     12         17           0        2.386901    0.714214   -0.915930
     13         17           0        0.550498   -1.531221   -1.057556
     14          6           0        0.249913    2.240361    0.600897
     15          1           0        1.139653    2.205576    1.234363
     16          1           0        0.468839    2.937754   -0.214434
     17          1           0       -0.555441    2.671543    1.192184
     18          7           0       -2.150351   -0.568209   -0.113033
     19          6           0       -3.567648   -0.759184   -0.300300
     20          1           0       -1.570702   -1.381032   -0.050666
     21          1           0       -4.143387   -0.412186    0.561255
     22          1           0       -3.927584   -0.224731   -1.181516
     23          1           0       -3.756653   -1.822420   -0.437665
 ---------------------------------------------------------------------

 SCF Done:  E(RwB97XD) =  -1340.99760505     A.U. after    1 cycles

 The electronic state is 1-A.
 Alpha  occ. eigenvalues -- -101.71544-101.69534 -19.18942 -14.52636 -14.43709
 Alpha  occ. eigenvalues --  -10.45469 -10.37062 -10.32955 -10.30313 -10.26931
 Alpha  occ. eigenvalues --  -10.26161  -9.60158  -9.58139  -7.34813  -7.33924
 Alpha  occ. eigenvalues --   -7.33900  -7.32753  -7.31929  -7.31902  -1.11804
 Alpha  occ. eigenvalues --   -1.08559  -1.00674  -0.99366  -0.92724  -0.87462
 Alpha  occ. eigenvalues --   -0.81004  -0.79768  -0.76351  -0.69253  -0.66547
 Alpha  occ. eigenvalues --   -0.65472  -0.60993  -0.59201  -0.57184  -0.55630
 Alpha  occ. eigenvalues --   -0.53242  -0.52737  -0.50472  -0.49794  -0.49527
 Alpha  occ. eigenvalues --   -0.48184  -0.46925  -0.45841  -0.45463  -0.44102
 Alpha  occ. eigenvalues --   -0.42489  -0.41538  -0.40218  -0.38957  -0.33237
 Alpha  occ. eigenvalues --   -0.32586  -0.26402
 Alpha virt. eigenvalues --    0.04962   0.07965   0.08425   0.09809   0.12511
 Alpha virt. eigenvalues --    0.13770   0.15054   0.15615   0.16083   0.17427
 Alpha virt. eigenvalues --    0.18765   0.19226   0.20376   0.20928   0.21292

 Mulliken charges:
               1
     1  C   -0.275268
     2  C    0.352814
     3  O   -0.561367
     4  C    0.084473
     5  C   -0.325566
     6  H    0.177451
     7  H    0.173883
     8  H    0.171652
     9  N   -0.210056
    10  H    0.297961
    11  H    0.307825
    12  Cl  -0.142173
    13  Cl  -0.075242
    14  C   -0.382466
    15  H    0.110625
    16  H    0.121966
    17  H    0.129257
    18  N   -0.318044
    19  C   -0.247538
    20  H    0.233607
    21  H    0.119572
    22  H    0.121873
    23  H    0.134758
 Sum of Mulliken charges =  -0.00000

 Dipole moment (field-independent basis, Debye):
    X=              6.3202    Y=             -7.9346    Z=              5.9587  Tot=             11.7647
 Quadrupole moment (field-independent basis, Debye-Ang):
   XX=            -82.7179   YY=            -83.5788   ZZ=            -73.5704
   XY=              8.7521   XZ=             10.0315   YZ=             -2.9363

  Exact polarizability: 201.000  -5.230 168.623  -3.452   0.449 139.217
 Approx polarizability: 155.150  -4.959 143.206  -2.383   1.227 120.140

 ******    1 imaginary frequencies (negative Signs) ******

                      1                      2                      3
                      A                      A                      A
 Frequencies --   -341.3762                44.9166                56.4058
 Red. masses --      5.8651                 4.2348                 3.9407
 Frc consts  --      0.4027                 0.0050                 0.0074
 IR Inten    --    531.3006                 5.3014                 2.0407

                      4                      5                      6
                      A                      A                      A
 Frequencies --     72.6794                84.0705               109.9807
 Red. masses --      3.1192                 1.3234                 1.7991
 Frc consts  --      0.0097                 0.0055                 0.0128
 IR Inten    --     42.6408                 0.5057                 4.1307

                      7                      8                      9
                      A                      A                      A
 Frequencies --    137.1858               155.6726               183.8065
 Red. masses --      1.2222                 1.8621                 4.8030
 Frc consts  --      0.0136                 0.0266                 0.0956
 IR Inten    --      1.7820                 2.8131                 1.3557

                     10                     11                     12
                      A                      A                      A
 Frequencies --    189.6465               205.6397               250.3627
 Red. masses --      1.9390                 2.6820                 5.1232
 Frc consts  --      0.0411                 0.0668                 0.1892
 IR Inten    --      2.9361                28.7762                 8.4579

                     13                     14                     15
                      A                      A                      A
 Frequencies --    258.9253               297.3569               323.4787
 Red. masses --      5.6615                 3.8465                 3.8985
 Frc consts  --      0.2236                 0.2004                 0.2403
 IR Inten    --     11.3736                 5.4486                41.7835

                     16                     17                     18
                      A                      A                      A
 Frequencies --    349.1747               368.9515               376.4247
 Red. masses --      3.6341                 1.5008                 3.5334
 Frc consts  --      0.2611                 0.1204                 0.2950
 IR Inten    --     18.7211               124.1180                18.0748

                     19                     20                     21
                      A                      A                      A
 Frequencies --    430.0045               504.3546               554.8170
 Red. masses --      4.0805                 4.9997                 5.6670
 Frc consts  --      0.4445                 0.7493                 1.0278
 IR Inten    --     37.4576                21.7442               229.6534

                     22                     23                     24
                      A                      A                      A
 Frequencies --    670.1611               731.0243               775.3270
 Red. masses --      3.2069                 2.7320                 7.6611
 Frc consts  --      0.8486                 0.8602                 2.7134
 IR Inten    --    167.0027               214.5981                39.8935

                     25                     26                     27
                      A                      A                      A
 Frequencies --    821.2611               901.0763              1003.5321
 Red. masses --      2.5587                 2.3980                 1.7365
 Frc consts  --      1.0168                 1.1471                 1.0303
 IR Inten    --     77.0878                65.0659               188.6879

                     28                     29                     30
                      A                      A                      A
 Frequencies --   1048.2751              1056.8306              1061.8194
 Red. masses --      1.6238                 2.0579                 1.8610
 Frc consts  --      1.0513                 1.3542                 1.2362
 IR Inten    --      4.8038                56.9919                14.1452

                     31                     32                     33
                      A                      A                      A
 Frequencies --   1075.7881              1110.7138              1156.6428
 Red. masses --      1.6566                 1.5554                 1.2868
 Frc consts  --      1.1296                 1.1306                 1.0143
 IR Inten    --     94.9831               108.5555                 0.8636

                     34                     35                     36
                      A                      A                      A
 Frequencies --   1177.7089              1222.5913              1280.1420
 Red. masses --      1.6936                 3.3955                 1.3267
 Frc consts  --      1.3840                 2.9903                 1.2810
 IR Inten    --    106.3041                14.4787                84.1683

                     37                     38                     39
                      A                      A                      A
 Frequencies --   1335.2607              1345.1181              1394.2456
 Red. masses --      2.4972                 1.4329                 2.5008
 Frc consts  --      2.6232                 1.5275                 2.8643
 IR Inten    --    522.7184               152.9856               357.1675

                     40                     41                     42
                      A                      A                      A
 Frequencies --   1424.9592              1453.5738              1456.2056
 Red. masses --      1.4312                 1.2288                 1.2373
 Frc consts  --      1.7122                 1.5298                 1.5459
 IR Inten    --    240.7454                41.9280                52.8098

                     43                     44                     45
                      A                      A                      A
 Frequencies --   1469.0046              1475.2834              1494.9763
 Red. masses --      1.0492                 1.0554                 1.0445
 Frc consts  --      1.3340                 1.3534                 1.3754
 IR Inten    --     14.8366                13.8561                26.3554

                     46                     47                     48
                      A                      A                      A
 Frequencies --   1499.0370              1501.3375              1509.7204
 Red. masses --      1.0843                 1.0588                 1.0838
 Frc consts  --      1.4355                 1.4061                 1.4555
 IR Inten    --    132.4728                 6.8895                27.9258

                     49                     50                     51
                      A                      A                      A
 Frequencies --   1556.9405              1624.2008              1635.2120
 Red. masses --      2.0479                 5.6345                 1.0859
 Frc consts  --      2.9248                 8.7576                 1.7107
 IR Inten    --    559.9171               780.3509                74.5539

                     52                     53                     54
                      A                      A                      A
 Frequencies --   3025.8759              3043.5445              3078.9026
 Red. masses --      1.0449                 1.0367                 1.0963
 Frc consts  --      5.6367                 5.6581                 6.1233
 IR Inten    --     91.5008                94.3436                59.8424

                     55                     56                     57
                      A                      A                      A
 Frequencies --   3082.2053              3099.1008              3146.6368
 Red. masses --      1.0331                 1.1027                 1.0960
 Frc consts  --      5.7823                 6.2398                 6.3938
 IR Inten    --     17.2214                52.6708                20.6747

                     58                     59                     60
                      A                      A                      A
 Frequencies --   3150.4152              3171.0718              3186.6284
 Red. masses --      1.1014                 1.1046                 1.1072
 Frc consts  --      6.4406                 6.5442                 6.6242
 IR Inten    --     28.1850                 1.4756                 5.9600

                     61                     62                     63
                      A                      A                      A
 Frequencies --   3502.3488              3580.0686              3718.2707
 Red. masses --      1.0512                 1.0967                 1.0775
 Frc consts  --      7.5975                 8.2821                 8.7772
 IR Inten    --     74.6423                77.2540                62.2789

 - Thermochemistry -
 -------------------
 Temperature   298.150 Kelvin.  Pressure   1.00000 Atm.
 Atom     1 has atomic number  6 and mass  12.00000

 Molecular mass:   198.03267 amu.
 Principal axes and moments of inertia in atomic units:
                           1         2         3
     Eigenvalues --  1679.842933024.408343410.50488
           X            0.99917   0.02318   0.03356
           Y           -0.02157   0.99863  -0.04762
           Z           -0.03462   0.04685   0.99830
 This molecule is an asymmetric top.
 Rotational symmetry number  1.
 Warning -- assumption of classical behavior for rotation
           may cause significant error
 Rotational temperatures (Kelvin)      0.05156     0.02864     0.02540
 Rotational constants (GHZ):           1.07435     0.59673     0.52917
    1 imaginary frequencies ignored.
 Zero-point vibrational energy     484528.8 (Joules/Mol)
                                  115.80517 (Kcal/Mol)
 Warning -- explicit consideration of  20 degrees of freedom as
           vibrations may cause significant error
 Vibrational temperatures:     64.62    81.16   104.57   120.96   158.24
          (Kelvin)            197.38   223.98   264.46   272.86   295.87
                              360.22   372.54   427.83   465.41   502.38
                              530.84   541.59   618.68   725.65   798.26
                              964.21  1051.78  1115.52  1181.61  1296.45
                             1443.86  1508.23  1520.54  1527.72  1547.82
                             1598.07  1664.15  1694.46  1759.04  1841.84
                             1921.14  1935.32  2006.01  2050.20  2091.37
                             2095.16  2113.57  2122.60  2150.94  2156.78
                             2160.09  2172.15  2240.09  2336.86  2352.71
                             4353.56  4378.98  4429.85  4434.61  4458.91
                             4527.31  4532.74  4562.47  4584.85  5039.10
                             5150.92  5349.76

 Zero-point correction=                           0.184547 (Hartree/Particle)
 Thermal correction to Energy=                    0.198597
 Thermal correction to Enthalpy=                  0.199542
 Thermal correction to Gibbs Free Energy=         0.142889
 Sum of electronic and zero-point Energies=          -1340.813058
 Sum of electronic and thermal Energies=             -1340.799008
 Sum of electronic and thermal Enthalpies=           -1340.798064
 Sum of electronic and thermal Free Energies=        -1340.854716

                     E (Thermal)             CV                S
                      KCal/Mol        Cal/Mol-Kelvin    Cal/Mol-Kelvin
 Total                  124.622             47.805            119.235
 Electronic               0.000              0.000              0.000
 Translational            0.889              2.981             41.755
 Rotational               0.889              2.981             31.228
 Vibrational            122.844             41.843             46.252
 Vibration     1          0.595              1.979              5.030
 Vibration     2          0.596              1.975              4.579
 Vibration     3          0.599              1.967              4.079
 Vibration     4          0.601              1.960              3.794
 Vibration     5          0.606              1.941              3.269
 Vibration     6          0.614              1.916              2.843
 Vibration     7          0.620              1.896              2.602
 Vibration     8          0.631              1.862              2.289
 Vibration     9          0.633              1.854              2.231
 Vibration    10          0.640              1.832              2.082
 Vibration    11          0.663              1.762              1.728
 Vibration    12          0.668              1.748              1.669
 Vibration    13          0.691              1.679              1.432
 Vibration    14          0.708              1.628              1.292
 Vibration    15          0.726              1.577              1.170
 Vibration    16          0.741              1.536              1.084
 Vibration    17          0.747              1.520              1.054
 Vibration    18          0.791              1.405              0.859
 Vibration    19          0.860              1.240              0.647
 Vibration    20          0.910              1.129              0.534

 Optimization completed.
    -- Stationary point found.
 Normal termination of Gaussian 16 at Sun Feb 28 14:22:25 2021.
