 Gaussian 16, Revision A.03,
 Gaussian 16:  ES64L-G16RevA.03 25-Dec-2016

 ----------------------------------------------------------------------
 # wB97XD def2tzvp, opt=(ts, noeigen, calcfc, maxcycles=70, maxstep=5),
  freq=noraman, scrf=(iefpcm, solvent=water)
 ----------------------------------------------------------------------

 ------------------------
 2_iteration/TS-911-2.out
 ------------------------
 Symbolic Z-matrix:
 Charge =  0 Multiplicity = 1

 SCF Done:  E(RwB97XD) =  -3646.76023488     A.U. after   14 cycles
 SCF Done:  E(RwB97XD) =  -3646.76023489     A.U. after    6 cycles
 Optimization completed.
    -- Stationary point found.
 Normal termination of Gaussian 16 at Wed Mar 31 06:15:56 2021.

 ---------------------------------------------------------------------
 #N Geom=AllCheck Guess=TCheck SCRF=Check GenChk RwB97XD/def2TZVP Freq
 ---------------------------------------------------------------------

 Structure from the checkpoint file:  "/beegfs/scratch/user/q/tla25/Gau-23054.chk"
 ------------------------
 2_iteration/TS-911-2.out
 ------------------------
 Charge =  0 Multiplicity = 1

                         Standard orientation:
 ---------------------------------------------------------------------
 Center     Atomic      Atomic             Coordinates (Angstroms)
 Number     Number       Type             X           Y           Z
 ---------------------------------------------------------------------
      1          6           0        1.025214   -0.028792   -0.302113
      2          6           0       -0.314072   -0.596320   -0.292796
      3          8           0       -0.527579   -1.797510   -0.461722
      4          6           0        2.194055   -0.786122   -0.345729
      5          6           0        1.953019   -1.292735    2.412474
      6          1           0        2.259878   -1.050738    3.429325
      7          1           0        1.011537   -0.785610    2.194896
      8          1           0        1.807493   -2.366848    2.327066
      9          7           0        2.943066   -0.855243    1.436972
     10          1           0        3.239265    0.097928    1.614705
     11          1           0        3.769931   -1.441475    1.433491
     12         17           0        3.626847   -0.011957   -1.100792
     13          6           0        2.188268   -2.255636   -0.670219
     14          1           0        1.827520   -2.397820   -1.687908
     15          1           0        3.198890   -2.652502   -0.596501
     16          1           0        1.520572   -2.794298   -0.006131
     17         35           0        1.231544    1.854580    0.014968
     18          7           0       -1.351890    0.288299   -0.103569
     19          6           0       -2.727649    0.041046   -0.073798
     20          6           0       -3.548420    1.108518    0.306169
     21          6           0       -4.922637    0.965008    0.350461
     22          6           0       -5.513826   -0.247458    0.019742
     23          6           0       -4.703235   -1.305906   -0.357984
     24          6           0       -3.321707   -1.176453   -0.410110
     25          1           0       -1.093846    1.243237    0.079213
     26          1           0       -3.098686    2.059224    0.569196
     27          1           0       -5.534418    1.807578    0.647801
     28          1           0       -6.589258   -0.362521    0.055783
     29          1           0       -5.147336   -2.258012   -0.622004
     30          1           0       -2.703659   -2.007408   -0.705970
 ---------------------------------------------------------------------

 SCF Done:  E(RwB97XD) =  -3646.76023489     A.U. after    1 cycles

 The electronic state is 1-A.
 Alpha  occ. eigenvalues -- -483.13160-101.69903 -62.67987 -56.47092 -56.46758
 Alpha  occ. eigenvalues --  -56.46748 -19.20787 -14.49041 -14.46360 -10.41173
 Alpha  occ. eigenvalues --  -10.39637 -10.33863 -10.31937 -10.31597 -10.29041
 Alpha  occ. eigenvalues --  -10.28881 -10.28843 -10.28833 -10.28254 -10.28192
 Alpha  occ. eigenvalues --   -9.58512  -8.82096  -7.33141  -7.32304  -7.32258
 Alpha  occ. eigenvalues --   -6.64204  -6.63141  -6.63108  -2.74600  -2.74295
 Alpha  occ. eigenvalues --   -2.74266  -2.73408  -2.73407  -1.14091  -1.04911
 Alpha  occ. eigenvalues --   -1.04161  -0.98155  -0.95581  -0.91094  -0.86030
 Alpha  occ. eigenvalues --   -0.85123  -0.84792  -0.79413  -0.79068  -0.74063
 Alpha  occ. eigenvalues --   -0.71506  -0.67961  -0.64666  -0.63654  -0.62313
 Alpha  occ. eigenvalues --   -0.58852  -0.58328  -0.57274  -0.56032  -0.54138
 Alpha  occ. eigenvalues --   -0.53709  -0.52418  -0.52094  -0.51569  -0.50185
 Alpha  occ. eigenvalues --   -0.50115  -0.48861  -0.47316  -0.46753  -0.45841
 Alpha  occ. eigenvalues --   -0.45019  -0.44705  -0.42845  -0.41289  -0.39820
 Alpha  occ. eigenvalues --   -0.39636  -0.39013  -0.37509  -0.33929  -0.33557
 Alpha  occ. eigenvalues --   -0.30463  -0.27647
 Alpha virt. eigenvalues --    0.03306   0.05183   0.05422   0.08242   0.10075
 Alpha virt. eigenvalues --    0.10865   0.12693   0.14030   0.14229   0.14997
 Alpha virt. eigenvalues --    0.15326   0.16884   0.17021   0.17882   0.18595

 Mulliken charges:
               1
     1  C   -0.277110
     2  C    0.434259
     3  O   -0.532839
     4  C    0.137343
     5  C   -0.303602
     6  H    0.162712
     7  H    0.156615
     8  H    0.161505
     9  N   -0.330774
    10  H    0.285725
    11  H    0.293314
    12  Cl  -0.112764
    13  C   -0.350809
    14  H    0.150310
    15  H    0.146947
    16  H    0.150900
    17  Br  -0.154417
    18  N   -0.269573
    19  C    0.303045
    20  C   -0.309769
    21  C   -0.100245
    22  C   -0.196635
    23  C   -0.110306
    24  C   -0.296065
    25  H    0.235468
    26  H    0.141320
    27  H    0.143240
    28  H    0.140483
    29  H    0.141077
    30  H    0.160642
 Sum of Mulliken charges =  -0.00000

 Dipole moment (field-independent basis, Debye):
    X=              5.3294    Y=             -0.5176    Z=              5.7203  Tot=              7.8353
 Quadrupole moment (field-independent basis, Debye-Ang):
   XX=            -97.4337   YY=           -110.6985   ZZ=           -110.7325
   XY=            -14.1557   XZ=             12.8669   YZ=             -1.8674

  Exact polarizability: 349.870  -5.632 257.649  -0.045  11.830 187.587
 Approx polarizability: 252.058   0.429 222.059  -0.996  11.381 163.491

 ******    1 imaginary frequencies (negative Signs) ******

                      1                      2                      3
                      A                      A                      A
 Frequencies --   -361.9119                16.6840                28.3223
 Red. masses --      5.6339                 4.1862                 5.4247
 Frc consts  --      0.4348                 0.0007                 0.0026
 IR Inten    --    884.5640                 2.6335                 3.7962

                      4                      5                      6
                      A                      A                      A
 Frequencies --     51.7557                64.8895                71.1431
 Red. masses --      5.6780                 5.8536                 2.2203
 Frc consts  --      0.0090                 0.0145                 0.0066
 IR Inten    --      9.7499                 1.5895                 2.0466

                      7                      8                      9
                      A                      A                      A
 Frequencies --     87.0460               128.3137               168.3599
 Red. masses --      6.7817                 2.7720                15.1315
 Frc consts  --      0.0303                 0.0269                 0.2527
 IR Inten    --      1.1125                13.0361                 0.2382

                     10                     11                     12
                      A                      A                      A
 Frequencies --    185.0453               192.8370               209.8083
 Red. masses --      1.2048                 7.2116                 6.1781
 Frc consts  --      0.0243                 0.1580                 0.1602
 IR Inten    --      4.4329                14.7944                 6.6985

                     13                     14                     15
                      A                      A                      A
 Frequencies --    241.4559               257.0459               260.5484
 Red. masses --      3.6548                 1.9708                 1.7566
 Frc consts  --      0.1255                 0.0767                 0.0703
 IR Inten    --      1.7359                 2.4380                 1.8907

                     16                     17                     18
                      A                      A                      A
 Frequencies --    303.2948               318.9955               344.2575
 Red. masses --      3.2704                 3.4124                 5.2779
 Frc consts  --      0.1772                 0.2046                 0.3685
 IR Inten    --     25.0313                 5.0367                21.8310

                     19                     20                     21
                      A                      A                      A
 Frequencies --    378.2544               397.8038               423.9676
 Red. masses --      7.3889                 7.9775                 2.9858
 Frc consts  --      0.6229                 0.7438                 0.3162
 IR Inten    --     16.0271                 0.5663                 0.1625

                     22                     23                     24
                      A                      A                      A
 Frequencies --    450.4584               498.4482               527.4869
 Red. masses --      3.6448                 5.1004                 2.6540
 Frc consts  --      0.4358                 0.7466                 0.4351
 IR Inten    --      1.3419                93.3068                49.6843

                     25                     26                     27
                      A                      A                      A
 Frequencies --    551.9901               582.5226               635.6099
 Red. masses --      1.1972                 5.5875                 6.3894
 Frc consts  --      0.2149                 1.1171                 1.5209
 IR Inten    --     70.8528               101.9487                 3.3124

                     28                     29                     30
                      A                      A                      A
 Frequencies --    658.9555               707.5525               718.9334
 Red. masses --      1.7488                 3.1173                 1.8854
 Frc consts  --      0.4474                 0.9195                 0.5742
 IR Inten    --     10.4529               131.2390                63.3639

                     31                     32                     33
                      A                      A                      A
 Frequencies --    764.4505               783.9536               832.2398
 Red. masses --      8.3424                 1.8455                 5.3388
 Frc consts  --      2.8724                 0.6683                 2.1786
 IR Inten    --     34.7996               102.0125                24.8271

                     34                     35                     36
                      A                      A                      A
 Frequencies --    861.1863               872.5674               933.5083
 Red. masses --      1.2693                 5.2958                 1.4684
 Frc consts  --      0.5547                 2.3756                 0.7539
 IR Inten    --      0.9699                26.3637                12.7390

                     37                     38                     39
                      A                      A                      A
 Frequencies --    989.7960              1001.6213              1006.0378
 Red. masses --      3.0086                 1.3485                 1.2659
 Frc consts  --      1.7366                 0.7971                 0.7549
 IR Inten    --    115.1606                 0.0413                39.3226

                     40                     41                     42
                      A                      A                      A
 Frequencies --   1017.3941              1020.1031              1039.8879
 Red. masses --      1.2858                 5.6856                 1.1510
 Frc consts  --      0.7841                 3.4859                 0.7333
 IR Inten    --      1.2171                 8.7869                39.0710

                     43                     44                     45
                      A                      A                      A
 Frequencies --   1057.7480              1063.7055              1072.5344
 Red. masses --      2.3802                 1.5193                 1.8439
 Frc consts  --      1.5690                 1.0128                 1.2497
 IR Inten    --     13.4650               100.4655                51.4049

                     46                     47                     48
                      A                      A                      A
 Frequencies --   1085.0763              1120.2375              1137.0107
 Red. masses --      3.9823                 1.7107                 2.8061
 Frc consts  --      2.7625                 1.2649                 2.1374
 IR Inten    --      4.8164                29.6416                15.9408

                     49                     50                     51
                      A                      A                      A
 Frequencies --   1182.7078              1211.4358              1221.7814
 Red. masses --      1.1211                 1.1431                 1.3934
 Frc consts  --      0.9240                 0.9884                 1.2255
 IR Inten    --      4.6053                40.0083                29.9757

                     52                     53                     54
                      A                      A                      A
 Frequencies --   1255.8235              1278.8980              1339.2063
 Red. masses --      3.2202                 3.6144                 1.3478
 Frc consts  --      2.9922                 3.4831                 1.4243
 IR Inten    --    776.2690                91.3217                33.6145

                     55                     56                     57
                      A                      A                      A
 Frequencies --   1344.7143              1362.7393              1411.7440
 Red. masses --      3.9870                 1.5474                 1.8665
 Frc consts  --      4.2477                 1.6931                 2.1918
 IR Inten    --    739.0228                 2.3479               518.0415

                     58                     59                     60
                      A                      A                      A
 Frequencies --   1428.6267              1446.9461              1465.5588
 Red. masses --      1.8489                 1.0581                 1.1719
 Frc consts  --      2.2233                 1.3052                 1.4830
 IR Inten    --    354.7039                 7.2356                 7.9760

                     61                     62                     63
                      A                      A                      A
 Frequencies --   1481.1742              1488.2996              1494.3233
 Red. masses --      2.1301                 1.1341                 1.0676
 Frc consts  --      2.7534                 1.4800                 1.4045
 IR Inten    --    278.4816                57.2206                58.5891

                     64                     65                     66
                      A                      A                      A
 Frequencies --   1507.8127              1547.4270              1574.8946
 Red. masses --      1.0340                 2.4365                 2.0021
 Frc consts  --      1.3851                 3.4375                 2.9258
 IR Inten    --     17.0944               199.6587               787.9126

                     67                     68                     69
                      A                      A                      A
 Frequencies --   1638.9079              1659.4675              1669.4517
 Red. masses --      1.0900                 6.3997                 4.0928
 Frc consts  --      1.7250                10.3836                 6.7208
 IR Inten    --     66.1229               159.6514               103.2464

                     70                     71                     72
                      A                      A                      A
 Frequencies --   1683.7638              3068.3974              3086.0096
 Red. masses --      6.6691                 1.0341                 1.0367
 Frc consts  --     11.1399                 5.7364                 5.8168
 IR Inten    --    427.1224                28.3980                15.0716

                     73                     74                     75
                      A                      A                      A
 Frequencies --   3143.0995              3162.1113              3173.2750
 Red. masses --      1.1038                 1.1034                 1.1051
 Frc consts  --      6.4246                 6.5002                 6.5565
 IR Inten    --      9.1135                15.3571                12.8096

                     76                     77                     78
                      A                      A                      A
 Frequencies --   3186.7899              3194.8678              3196.1068
 Red. masses --      1.0882                 1.1017                 1.0883
 Frc consts  --      6.5111                 6.6256                 6.5500
 IR Inten    --     13.8814                 3.0212                 3.0847

                     79                     80                     81
                      A                      A                      A
 Frequencies --   3206.5323              3221.3688              3272.7859
 Red. masses --      1.0930                 1.0980                 1.0926
 Frc consts  --      6.6213                 6.7134                 6.8950
 IR Inten    --     29.9319                23.5839                 5.4341

                     82                     83                     84
                      A                      A                      A
 Frequencies --   3524.6906              3607.1556              3634.2466
 Red. masses --      1.0508                 1.0962                 1.0762
 Frc consts  --      7.6913                 8.4040                 8.3748
 IR Inten    --     60.3622                56.5810               116.0753

 - Thermochemistry -
 -------------------
 Temperature   298.150 Kelvin.  Pressure   1.00000 Atm.
 Atom     1 has atomic number  6 and mass  12.00000

 Molecular mass:   303.99780 amu.
 Principal axes and moments of inertia in atomic units:
                           1         2         3
     Eigenvalues --  2595.737469144.56976**********
           X            0.99963  -0.02505   0.01033
           Y            0.02516   0.99963  -0.00996
           Z           -0.01008   0.01022   0.99990
 This molecule is an asymmetric top.
 Rotational symmetry number  1.
 Warning -- assumption of classical behavior for rotation
           may cause significant error
 Rotational temperatures (Kelvin)      0.03337     0.00947     0.00835
 Rotational constants (GHZ):           0.69527     0.19736     0.17394
    1 imaginary frequencies ignored.
 Zero-point vibrational energy     625012.8 (Joules/Mol)
                                  149.38165 (Kcal/Mol)
 Warning -- explicit consideration of  25 degrees of freedom as
           vibrations may cause significant error
 Vibrational temperatures:     24.00    40.75    74.46    93.36   102.36
          (Kelvin)            125.24   184.61   242.23   266.24   277.45
                              301.87   347.40   369.83   374.87   436.37
                              458.96   495.31   544.22   572.35   609.99
                              648.11   717.16   758.94   794.19   838.12
                              914.50   948.09  1018.01  1034.38  1099.87
                             1127.93  1197.41  1239.06  1255.43  1343.11
                             1424.10  1441.11  1447.46  1463.80  1467.70
                             1496.17  1521.86  1530.43  1543.14  1561.18
                             1611.77  1635.90  1701.65  1742.99  1757.87
                             1806.85  1840.05  1926.82  1934.74  1960.68
                             2031.18  2055.48  2081.83  2108.61  2131.08
                             2141.33  2150.00  2169.41  2226.40  2265.92
                             2358.02  2387.60  2401.97  2422.56  4414.74
                             4440.08  4522.22  4549.57  4565.63  4585.08
                             4596.70  4598.48  4613.48  4634.83  4708.81
                             5071.24  5189.89  5228.87

 Zero-point correction=                           0.238055 (Hartree/Particle)
 Thermal correction to Energy=                    0.254898
 Thermal correction to Enthalpy=                  0.255843
 Thermal correction to Gibbs Free Energy=         0.190545
 Sum of electronic and zero-point Energies=          -3646.522180
 Sum of electronic and thermal Energies=             -3646.505336
 Sum of electronic and thermal Enthalpies=           -3646.504392
 Sum of electronic and thermal Free Energies=        -3646.569690

                     E (Thermal)             CV                S
                      KCal/Mol        Cal/Mol-Kelvin    Cal/Mol-Kelvin
 Total                  159.951             60.949            137.431
 Electronic               0.000              0.000              0.000
 Translational            0.889              2.981             43.032
 Rotational               0.889              2.981             33.865
 Vibrational            158.174             54.987             60.534
 Vibration     1          0.593              1.986              6.994
 Vibration     2          0.593              1.984              5.944
 Vibration     3          0.596              1.977              4.749
 Vibration     4          0.597              1.971              4.303
 Vibration     5          0.598              1.968              4.121
 Vibration     6          0.601              1.958              3.725
 Vibration     7          0.611              1.925              2.971
 Vibration     8          0.625              1.881              2.454
 Vibration     9          0.631              1.860              2.277
 Vibration    10          0.635              1.850              2.200
 Vibration    11          0.642              1.826              2.045
 Vibration    12          0.658              1.777              1.792
 Vibration    13          0.667              1.751              1.682
 Vibration    14          0.669              1.745              1.658
 Vibration    15          0.695              1.667              1.399
 Vibration    16          0.705              1.637              1.315
 Vibration    17          0.723              1.587              1.192
 Vibration    18          0.749              1.516              1.046
 Vibration    19          0.764              1.475              0.971
 Vibration    20          0.786              1.418              0.879
 Vibration    21          0.809              1.360              0.794
 Vibration    22          0.854              1.253              0.662
 Vibration    23          0.882              1.189              0.593
 Vibration    24          0.907              1.135              0.540
 Vibration    25          0.939              1.069              0.481

 Optimization completed.
    -- Stationary point found.
 Normal termination of Gaussian 16 at Wed Mar 31 07:18:53 2021.
