 Gaussian 16, Revision A.03,
 Gaussian 16:  ES64L-G16RevA.03 25-Dec-2016

 ----------------------------------------------------------------------
 # wB97XD def2tzvp, opt=(ts, noeigen, calcfc, maxcycles=70, maxstep=1),
  freq=noraman, scrf=(iefpcm, solvent=water)
 ----------------------------------------------------------------------

 ------------------------
 0_iteration/TS-958-0.out
 ------------------------
 Symbolic Z-matrix:
 Charge =  0 Multiplicity = 1

 SCF Done:  E(RwB97XD) =  -3914.59965860     A.U. after   15 cycles
 SCF Done:  E(RwB97XD) =  -3914.59964150     A.U. after   10 cycles
 SCF Done:  E(RwB97XD) =  -3914.59962755     A.U. after   10 cycles
 SCF Done:  E(RwB97XD) =  -3914.59961731     A.U. after   10 cycles
 SCF Done:  E(RwB97XD) =  -3914.59961128     A.U. after   10 cycles
 SCF Done:  E(RwB97XD) =  -3914.59960993     A.U. after   10 cycles
 SCF Done:  E(RwB97XD) =  -3914.59961407     A.U. after   10 cycles
 SCF Done:  E(RwB97XD) =  -3914.59962530     A.U. after   10 cycles
 SCF Done:  E(RwB97XD) =  -3914.59964586     A.U. after   10 cycles
 SCF Done:  E(RwB97XD) =  -3914.59967714     A.U. after   10 cycles
 SCF Done:  E(RwB97XD) =  -3914.60107052     A.U. after   10 cycles
 SCF Done:  E(RwB97XD) =  -3914.60112612     A.U. after   10 cycles
 SCF Done:  E(RwB97XD) =  -3914.60117471     A.U. after   10 cycles
 SCF Done:  E(RwB97XD) =  -3914.60121688     A.U. after    9 cycles
 SCF Done:  E(RwB97XD) =  -3914.60125157     A.U. after    9 cycles
 SCF Done:  E(RwB97XD) =  -3914.60127658     A.U. after    9 cycles
 SCF Done:  E(RwB97XD) =  -3914.60129127     A.U. after    9 cycles
 SCF Done:  E(RwB97XD) =  -3914.60129662     A.U. after    9 cycles
 SCF Done:  E(RwB97XD) =  -3914.60129666     A.U. after    7 cycles
 Optimization completed.
    -- Stationary point found.
 Normal termination of Gaussian 16 at Sun Feb 28 08:30:23 2021.

 ---------------------------------------------------------------------
 #N Geom=AllCheck Guess=TCheck SCRF=Check GenChk RwB97XD/def2TZVP Freq
 ---------------------------------------------------------------------

 Structure from the checkpoint file:  "/beegfs/scratch/user/q/tla25/Gau-90150.chk"
 ------------------------
 0_iteration/TS-958-0.out
 ------------------------
 Charge =  0 Multiplicity = 1

                         Standard orientation:
 ---------------------------------------------------------------------
 Center     Atomic      Atomic             Coordinates (Angstroms)
 Number     Number       Type             X           Y           Z
 ---------------------------------------------------------------------
      1          6           0       -0.407967    0.550602   -0.223553
      2          6           0       -1.415855   -0.254533    0.485514
      3          8           0       -1.106478   -0.869296    1.518260
      4          6           0        0.923580    0.193447   -0.153587
      5          6           0        1.431159    1.529518    2.266082
      6          1           0        0.439514    1.925167    2.048770
      7          1           0        1.560107    1.475755    3.347358
      8          1           0        2.183882    2.193408    1.846439
      9          7           0        1.543358    0.211180    1.658143
     10          1           0        2.469084   -0.191241    1.748645
     11          1           0        0.835058   -0.424105    2.025692
     12         17           0        2.106078    1.210701   -0.929419
     13         35           0        1.338050   -1.699195   -0.479368
     14         17           0       -0.852141    2.192376   -0.658166
     15          7           0       -2.680332   -0.285269    0.011238
     16          6           0       -3.042706    0.026399   -1.356669
     17          6           0       -3.723372   -0.887571    0.815430
     18          1           0       -2.152833    0.132543   -1.970507
     19          1           0       -3.639678   -0.795371   -1.758127
     20          1           0       -3.630987    0.944806   -1.415928
     21          1           0       -3.854055   -1.946398    0.572422
     22          1           0       -3.474546   -0.800772    1.869322
     23          1           0       -4.662641   -0.368456    0.621677
 ---------------------------------------------------------------------

 SCF Done:  E(RwB97XD) =  -3914.60129666     A.U. after    1 cycles

 The electronic state is 1-A.
 Alpha  occ. eigenvalues -- -483.13708-101.71675-101.69568 -62.68554 -56.47685
 Alpha  occ. eigenvalues --  -56.47304 -56.47300 -19.21622 -14.48594 -14.46600
 Alpha  occ. eigenvalues --  -10.44672 -10.39226 -10.32009 -10.31775 -10.31074
 Alpha  occ. eigenvalues --  -10.30773  -9.60246  -9.58071  -8.82657  -7.34930
 Alpha  occ. eigenvalues --   -7.34007  -7.33971  -7.32733  -7.31852  -7.31827
 Alpha  occ. eigenvalues --   -6.64851  -6.63646  -6.63633  -2.75224  -2.74883
 Alpha  occ. eigenvalues --   -2.74873  -2.73899  -2.73899  -1.14418  -1.04941
 Alpha  occ. eigenvalues --   -1.03972  -1.00140  -0.95151  -0.89700  -0.83348
 Alpha  occ. eigenvalues --   -0.81731  -0.79609  -0.78805  -0.69039  -0.64119
 Alpha  occ. eigenvalues --   -0.62227  -0.59676  -0.57984  -0.57421  -0.56673
 Alpha  occ. eigenvalues --   -0.54945  -0.54417  -0.51868  -0.49050  -0.48917
 Alpha  occ. eigenvalues --   -0.48692  -0.48414  -0.47613  -0.46958  -0.46169
 Alpha  occ. eigenvalues --   -0.42570  -0.42024  -0.40761  -0.39983  -0.37625
 Alpha  occ. eigenvalues --   -0.37547  -0.35291  -0.32606  -0.27530
 Alpha virt. eigenvalues --    0.02316   0.04650   0.07107   0.10875   0.12203
 Alpha virt. eigenvalues --    0.12609   0.15058   0.16044   0.16761   0.17422
 Alpha virt. eigenvalues --    0.17770   0.17999   0.18954   0.19840   0.20254

 Mulliken charges:
               1
     1  C   -0.351372
     2  C    0.355627
     3  O   -0.551564
     4  C    0.205963
     5  C   -0.299457
     6  H    0.156417
     7  H    0.158138
     8  H    0.153753
     9  N   -0.312415
    10  H    0.286967
    11  H    0.283678
    12  Cl  -0.042284
    13  Br  -0.086454
    14  Cl  -0.142264
    15  N   -0.097741
    16  C   -0.305566
    17  C   -0.290298
    18  H    0.163796
    19  H    0.142371
    20  H    0.146059
    21  H    0.140651
    22  H    0.142596
    23  H    0.143396
 Sum of Mulliken charges =  -0.00000

 Dipole moment (field-independent basis, Debye):
    X=              0.6644    Y=              0.6733    Z=              2.3134  Tot=              2.4993
 Quadrupole moment (field-independent basis, Debye-Ang):
   XX=            -80.6227   YY=           -101.7161   ZZ=            -93.5161
   XY=              3.3080   XZ=             11.6568   YZ=              5.6065

  Exact polarizability: 224.786  -0.835 194.528  15.922  -4.841 175.834
 Approx polarizability: 172.643  -2.244 164.644  10.810  -7.801 152.099

 ******    1 imaginary frequencies (negative Signs) ******

                      1                      2                      3
                      A                      A                      A
 Frequencies --   -390.3134                48.7485                71.4129
 Red. masses --      6.1036                 4.5177                 4.9388
 Frc consts  --      0.5479                 0.0063                 0.0148
 IR Inten    --    773.9615                 4.4145                 5.3577

                      4                      5                      6
                      A                      A                      A
 Frequencies --     83.5986                95.9055               117.3852
 Red. masses --      2.3669                 3.1661                 1.3607
 Frc consts  --      0.0097                 0.0172                 0.0110
 IR Inten    --      1.6287                 4.3135                 0.7181

                      7                      8                      9
                      A                      A                      A
 Frequencies --    136.1542               145.4404               164.8469
 Red. masses --      3.6141                 6.9444                 1.9493
 Frc consts  --      0.0395                 0.0865                 0.0312
 IR Inten    --     13.6302                10.5803                 6.6569

                     10                     11                     12
                      A                      A                      A
 Frequencies --    171.8553               178.1379               211.0072
 Red. masses --      1.5906                 2.4969                 3.3696
 Frc consts  --      0.0277                 0.0467                 0.0884
 IR Inten    --      1.8520                 5.5782                 0.6445

                     13                     14                     15
                      A                      A                      A
 Frequencies --    222.7061               236.1572               252.9340
 Red. masses --      9.8159                 4.1499                 1.9720
 Frc consts  --      0.2868                 0.1364                 0.0743
 IR Inten    --      3.6852                 8.8716                 7.8146

                     16                     17                     18
                      A                      A                      A
 Frequencies --    277.7528               285.5015               335.8779
 Red. masses --      4.3725                 6.8187                 4.6186
 Frc consts  --      0.1987                 0.3275                 0.3070
 IR Inten    --     35.3606                18.4955                30.8842

                     19                     20                     21
                      A                      A                      A
 Frequencies --    348.0456               403.0874               485.7240
 Red. masses --      6.2404                 3.2396                 4.1359
 Frc consts  --      0.4454                 0.3101                 0.5749
 IR Inten    --      2.3064                 7.5261                60.7223

                     22                     23                     24
                      A                      A                      A
 Frequencies --    535.2723               649.3199               681.0186
 Red. masses --      8.7867                 2.6765                 3.8439
 Frc consts  --      1.4833                 0.6649                 1.0504
 IR Inten    --    113.6297                18.8074                49.7728

                     25                     26                     27
                      A                      A                      A
 Frequencies --    752.7404               776.3666               810.3600
 Red. masses --      5.4031                 3.6527                 6.2291
 Frc consts  --      1.8038                 1.2972                 2.4101
 IR Inten    --    216.5085                41.1352               133.9611

                     28                     29                     30
                      A                      A                      A
 Frequencies --    953.6500              1004.8995              1058.3932
 Red. masses --      4.2138                 1.1048                 2.1484
 Frc consts  --      2.2579                 0.6573                 1.4179
 IR Inten    --     37.0524                72.2665                88.0502

                     31                     32                     33
                      A                      A                      A
 Frequencies --   1078.3495              1086.9336              1093.7074
 Red. masses --      2.1836                 1.3823                 2.0185
 Frc consts  --      1.4960                 0.9622                 1.4226
 IR Inten    --      5.5204                19.5799               109.9490

                     34                     35                     36
                      A                      A                      A
 Frequencies --   1131.7479              1170.4283              1216.0357
 Red. masses --      1.2306                 1.4114                 1.6776
 Frc consts  --      0.9287                 1.1392                 1.4616
 IR Inten    --      0.7907                 3.8380               167.2610

                     37                     38                     39
                      A                      A                      A
 Frequencies --   1220.3753              1315.7005              1355.2121
 Red. masses --      2.2306                 5.2642                 1.3152
 Frc consts  --      1.9573                 5.3691                 1.4231
 IR Inten    --    120.3081                55.0384                22.9184

                     40                     41                     42
                      A                      A                      A
 Frequencies --   1405.4359              1440.7336              1446.9821
 Red. masses --      5.4075                 1.5226                 1.3382
 Frc consts  --      6.2931                 1.8621                 1.6508
 IR Inten    --   1044.3806                47.9929                32.1203

                     43                     44                     45
                      A                      A                      A
 Frequencies --   1460.3269              1474.2365              1482.9006
 Red. masses --      1.2465                 1.2146                 1.0787
 Frc consts  --      1.5662                 1.5553                 1.3976
 IR Inten    --     20.0473                28.6439                 5.1457

                     46                     47                     48
                      A                      A                      A
 Frequencies --   1489.7054              1491.2059              1500.6315
 Red. masses --      1.0414                 1.0636                 1.0523
 Frc consts  --      1.3616                 1.3935                 1.3962
 IR Inten    --     23.6493                22.9933                17.1663

                     49                     50                     51
                      A                      A                      A
 Frequencies --   1503.1526              1537.9829              1614.4953
 Red. masses --      1.0339                 1.8055                 1.4433
 Frc consts  --      1.3763                 2.5163                 2.2166
 IR Inten    --      8.3079               196.9783               422.8555

                     52                     53                     54
                      A                      A                      A
 Frequencies --   1650.1541              3040.4833              3047.6112
 Red. masses --      2.6866                 1.0426                 1.0379
 Frc consts  --      4.3102                 5.6786                 5.6797
 IR Inten    --    384.6843                67.1024                96.6950

                     55                     56                     57
                      A                      A                      A
 Frequencies --   3069.9397              3105.3796              3114.5287
 Red. masses --      1.0335                 1.1030                 1.0978
 Frc consts  --      5.7387                 6.2669                 6.2745
 IR Inten    --     35.8452                58.7063                17.2509

                     58                     59                     60
                      A                      A                      A
 Frequencies --   3146.6041              3169.9744              3175.3546
 Red. masses --      1.1041                 1.1057                 1.0998
 Frc consts  --      6.4407                 6.5462                 6.5335
 IR Inten    --     10.9577                12.8548                11.9173

                     61                     62                     63
                      A                      A                      A
 Frequencies --   3176.3743              3434.5457              3585.7190
 Red. masses --      1.1009                 1.0597                 1.0898
 Frc consts  --      6.5440                 7.3650                 8.2559
 IR Inten    --      9.5311               110.3458               117.9661

 - Thermochemistry -
 -------------------
 Temperature   298.150 Kelvin.  Pressure   1.00000 Atm.
 Atom     1 has atomic number  6 and mass  12.00000

 Molecular mass:   275.94318 amu.
 Principal axes and moments of inertia in atomic units:
                           1         2         3
     Eigenvalues --  2815.525574220.395225095.08006
           X            0.99494   0.09126   0.04208
           Y           -0.09235   0.99542   0.02466
           Z           -0.03964  -0.02842   0.99881
 This molecule is an asymmetric top.
 Rotational symmetry number  1.
 Warning -- assumption of classical behavior for rotation
           may cause significant error
 Rotational temperatures (Kelvin)      0.03076     0.02052     0.01700
 Rotational constants (GHZ):           0.64100     0.42762     0.35421
    1 imaginary frequencies ignored.
 Zero-point vibrational energy     458930.9 (Joules/Mol)
                                  109.68711 (Kcal/Mol)
 Warning -- explicit consideration of  21 degrees of freedom as
           vibrations may cause significant error
 Vibrational temperatures:     70.14   102.75   120.28   137.99   168.89
          (Kelvin)            195.90   209.26   237.18   247.26   256.30
                              303.59   320.42   339.78   363.92   399.62
                              410.77   483.25   500.76   579.95   698.85
                              770.14   934.23   979.83  1083.03  1117.02
                             1165.93  1372.09  1445.83  1522.79  1551.50
                             1563.86  1573.60  1628.33  1683.99  1749.60
                             1755.85  1893.00  1949.85  2022.11  2072.89
                             2081.88  2101.08  2121.10  2133.56  2143.35
                             2145.51  2159.07  2162.70  2212.81  2322.90
                             2374.20  4374.58  4384.83  4416.96  4467.95
                             4481.11  4527.26  4560.89  4568.63  4570.09
                             4941.55  5159.05

 Zero-point correction=                           0.174798 (Hartree/Particle)
 Thermal correction to Energy=                    0.189890
 Thermal correction to Enthalpy=                  0.190835
 Thermal correction to Gibbs Free Energy=         0.131466
 Sum of electronic and zero-point Energies=          -3914.426499
 Sum of electronic and thermal Energies=             -3914.411406
 Sum of electronic and thermal Enthalpies=           -3914.410462
 Sum of electronic and thermal Free Energies=        -3914.469830

                     E (Thermal)             CV                S
                      KCal/Mol        Cal/Mol-Kelvin    Cal/Mol-Kelvin
 Total                  119.158             50.875            124.951
 Electronic               0.000              0.000              0.000
 Translational            0.889              2.981             42.744
 Rotational               0.889              2.981             32.471
 Vibrational            117.381             44.913             49.737
 Vibration     1          0.595              1.978              4.868
 Vibration     2          0.598              1.968              4.114
 Vibration     3          0.600              1.960              3.805
 Vibration     4          0.603              1.952              3.536
 Vibration     5          0.608              1.935              3.143
 Vibration     6          0.614              1.917              2.857
 Vibration     7          0.617              1.908              2.731
 Vibration     8          0.623              1.886              2.493
 Vibration     9          0.626              1.877              2.415
 Vibration    10          0.629              1.869              2.348
 Vibration    11          0.643              1.824              2.035
 Vibration    12          0.648              1.806              1.937
 Vibration    13          0.655              1.785              1.832
 Vibration    14          0.664              1.758              1.710
 Vibration    15          0.679              1.715              1.547
 Vibration    16          0.683              1.701              1.500
 Vibration    17          0.717              1.604              1.232
 Vibration    18          0.726              1.579              1.175
 Vibration    19          0.768              1.463              0.951
 Vibration    20          0.842              1.282              0.695
 Vibration    21          0.890              1.172              0.576

 Optimization completed.
    -- Stationary point found.
 Normal termination of Gaussian 16 at Sun Feb 28 09:00:47 2021.
