 Gaussian 16, Revision A.03,
 Gaussian 16:  ES64L-G16RevA.03 25-Dec-2016

 ----------------------------------------------------------------------
 # wB97XD def2tzvp, opt=(ts, noeigen, calcfc, maxcycles=70, maxstep=8),
  freq=noraman, scrf=(iefpcm, solvent=water)
 ----------------------------------------------------------------------

 -----------------------
 1_iteration/TS-93-1.out
 -----------------------
 Symbolic Z-matrix:
 Charge =  0 Multiplicity = 1

 SCF Done:  E(RwB97XD) =  -652.849688617     A.U. after   14 cycles
 Optimization completed.
    -- Stationary point found.
 Normal termination of Gaussian 16 at Sun Jan 31 04:03:13 2021.

 ---------------------------------------------------------------------
 #N Geom=AllCheck Guess=TCheck SCRF=Check GenChk RwB97XD/def2TZVP Freq
 ---------------------------------------------------------------------

 Structure from the checkpoint file:  "/beegfs/scratch/user/q/tla25/Gau-96068.chk"
 -----------------------
 1_iteration/TS-93-1.out
 -----------------------
 Charge =  0 Multiplicity = 1

                         Standard orientation:
 ---------------------------------------------------------------------
 Center     Atomic      Atomic             Coordinates (Angstroms)
 Number     Number       Type             X           Y           Z
 ---------------------------------------------------------------------
      1          6           0       -1.044468   -0.662660    0.263110
      2          6           0       -2.424379   -0.316061    0.210650
      3          8           0       -2.862569    0.858979    0.170230
      4          6           0       -0.022479    0.311300    0.430510
      5          6           0        0.641470    2.629181   -1.215340
      6          1           0        0.470090    3.098161   -2.185070
      7          1           0        0.428690    3.354131   -0.433490
      8          1           0        1.686190    2.326621   -1.145190
      9          7           0       -0.208619    1.455210   -1.035670
     10          1           0       -1.194829    1.683720   -0.907000
     11          1           0       -0.139449    0.820280   -1.821560
     12          6           0        1.380141   -0.204269    0.237110
     13          6           0        1.685622   -0.991079   -0.874720
     14          6           0        2.967162   -1.471478   -1.082220
     15          6           0        3.976802   -1.177778   -0.175320
     16          6           0        3.689212   -0.397118    0.932190
     17          6           0        2.404431    0.090841    1.132030
     18          1           0        0.908752   -1.232569   -1.590150
     19          1           0        3.179052   -2.075858   -1.955210
     20          1           0        4.979662   -1.553287   -0.334200
     21          1           0        4.467061   -0.160818    1.647360
     22          1           0        2.208581    0.698611    2.004390
     23          6           0       -0.185309    1.336380    1.536080
     24          1           0       -0.037819    0.837680    2.495190
     25          1           0        0.535980    2.150771    1.467360
     26          1           0       -1.193449    1.740920    1.516770
     27          1           0       -0.761628   -1.659970   -0.045540
     28          7           0       -3.326608   -1.354251    0.174720
     29          6           0       -4.694078   -1.150372   -0.239890
     30          1           0       -2.946708   -2.276141    0.053350
     31          1           0       -4.772958   -0.789732   -1.271540
     32          1           0       -5.227028   -2.096922   -0.162800
     33          1           0       -5.187808   -0.425472    0.406990
 ---------------------------------------------------------------------

 SCF Done:  E(RwB97XD) =  -652.849688617     A.U. after    1 cycles

 The electronic state is 1-A.
 Alpha  occ. eigenvalues --  -19.18678 -14.47838 -14.43012 -10.35744 -10.34739
 Alpha  occ. eigenvalues --  -10.31572 -10.30279 -10.29975 -10.29229 -10.29211
 Alpha  occ. eigenvalues --  -10.29172 -10.29147 -10.29095 -10.26994 -10.23120
 Alpha  occ. eigenvalues --   -1.10768  -1.03613  -0.99584  -0.97155  -0.90740
 Alpha  occ. eigenvalues --   -0.85443  -0.84007  -0.81234  -0.79107  -0.76387
 Alpha  occ. eigenvalues --   -0.71981  -0.70324  -0.66378  -0.64554  -0.62558
 Alpha  occ. eigenvalues --   -0.60591  -0.58271  -0.56231  -0.55907  -0.54989
 Alpha  occ. eigenvalues --   -0.54117  -0.52904  -0.52432  -0.51918  -0.51004
 Alpha  occ. eigenvalues --   -0.49047  -0.48188  -0.47245  -0.46660  -0.46459
 Alpha  occ. eigenvalues --   -0.46285  -0.44762  -0.44645  -0.42757  -0.42126
 Alpha  occ. eigenvalues --   -0.41160  -0.34015  -0.33644  -0.32923  -0.32081
 Alpha  occ. eigenvalues --   -0.25399
 Alpha virt. eigenvalues --    0.03157   0.05048   0.09850   0.10434   0.12735
 Alpha virt. eigenvalues --    0.13347   0.13624   0.14984   0.15463   0.16259
 Alpha virt. eigenvalues --    0.16997   0.17154   0.18074   0.18784   0.19138

 Mulliken charges:
               1
     1  C   -0.565949
     2  C    0.407567
     3  O   -0.624528
     4  C    0.333518
     5  C   -0.301678
     6  H    0.154237
     7  H    0.158257
     8  H    0.154957
     9  N   -0.289731
    10  H    0.273162
    11  H    0.265416
    12  C    0.086507
    13  C   -0.270375
    14  C   -0.156549
    15  C   -0.140856
    16  C   -0.145568
    17  C   -0.227829
    18  H    0.162807
    19  H    0.142899
    20  H    0.144814
    21  H    0.142946
    22  H    0.157912
    23  C   -0.461947
    24  H    0.142818
    25  H    0.140119
    26  H    0.159379
    27  H    0.133613
    28  N   -0.347519
    29  C   -0.242966
    30  H    0.246833
    31  H    0.111123
    32  H    0.134299
    33  H    0.122312
 Sum of Mulliken charges =  -0.00000

 Dipole moment (field-independent basis, Debye):
    X=              4.9387    Y=              0.4905    Z=             -3.8917  Tot=              6.3069
 Quadrupole moment (field-independent basis, Debye-Ang):
   XX=            -94.2773   YY=            -82.4152   ZZ=            -85.5934
   XY=              9.5405   XZ=              4.7898   YZ=              1.1422

  Exact polarizability: 290.043   6.051 207.088   1.750  10.276 197.507
 Approx polarizability: 208.087  -1.301 172.448   3.321  10.567 168.500

 ******    1 imaginary frequencies (negative Signs) ******

                      1                      2                      3
                      A                      A                      A
 Frequencies --   -376.2810                47.6952                66.5584
 Red. masses --      5.6780                 3.7000                 2.9817
 Frc consts  --      0.4737                 0.0050                 0.0078
 IR Inten    --    798.3051                 0.2897                11.4411

                      4                      5                      6
                      A                      A                      A
 Frequencies --     69.2537                80.9461                89.7809
 Red. masses --      3.5038                 2.5724                 2.1806
 Frc consts  --      0.0099                 0.0099                 0.0104
 IR Inten    --      7.2830                16.3972                 8.2386

                      7                      8                      9
                      A                      A                      A
 Frequencies --    114.1375               130.8640               148.1370
 Red. masses --      1.9798                 1.6109                 2.4957
 Frc consts  --      0.0152                 0.0163                 0.0323
 IR Inten    --     15.4502                22.3078                 2.3871

                     10                     11                     12
                      A                      A                      A
 Frequencies --    193.0728               221.6316               254.5700
 Red. masses --      2.3769                 1.9723                 3.0909
 Frc consts  --      0.0522                 0.0571                 0.1180
 IR Inten    --     17.8526                 7.6630                20.1573

                     13                     14                     15
                      A                      A                      A
 Frequencies --    280.4720               285.5456               320.1310
 Red. masses --      3.9590                 3.8069                 2.1156
 Frc consts  --      0.1835                 0.1829                 0.1277
 IR Inten    --      4.2540                57.2828                14.0640

                     16                     17                     18
                      A                      A                      A
 Frequencies --    351.0047               365.2572               381.3524
 Red. masses --      1.7293                 2.6193                 3.1078
 Frc consts  --      0.1255                 0.2059                 0.2663
 IR Inten    --      3.9015                 9.5109                10.2987

                     19                     20                     21
                      A                      A                      A
 Frequencies --    423.9733               436.5298               440.4991
 Red. masses --      2.7804                 2.7153                 1.3398
 Frc consts  --      0.2945                 0.3049                 0.1532
 IR Inten    --      3.1304                22.3274                68.4422

                     22                     23                     24
                      A                      A                      A
 Frequencies --    505.9286               555.7529               609.6951
 Red. masses --      3.3099                 2.3681                 2.2346
 Frc consts  --      0.4992                 0.4309                 0.4894
 IR Inten    --     19.4869                26.2413               163.3852

                     25                     26                     27
                      A                      A                      A
 Frequencies --    626.4482               638.3117               721.9039
 Red. masses --      1.9466                 6.2956                 1.6083
 Frc consts  --      0.4501                 1.5113                 0.4938
 IR Inten    --    162.8156                 1.6891                40.2793

                     28                     29                     30
                      A                      A                      A
 Frequencies --    735.2768               736.4905               783.2252
 Red. masses --      2.2495                 1.7977                 6.6208
 Frc consts  --      0.7165                 0.5745                 2.3930
 IR Inten    --     73.1896                30.4803               114.4318

                     31                     32                     33
                      A                      A                      A
 Frequencies --    800.0367               813.5799               879.4413
 Red. masses --      2.1933                 3.6855                 1.2452
 Frc consts  --      0.8271                 1.4373                 0.5674
 IR Inten    --     19.9497                 6.0098                 0.3716

                     34                     35                     36
                      A                      A                      A
 Frequencies --    936.1572               964.1389               987.8705
 Red. masses --      3.0166                 1.4731                 2.3195
 Frc consts  --      1.5576                 0.8068                 1.3336
 IR Inten    --     69.6434                 1.1631                 6.7178

                     37                     38                     39
                      A                      A                      A
 Frequencies --   1015.6391              1025.9678              1031.8369
 Red. masses --      1.3662                 5.5934                 1.3078
 Frc consts  --      0.8303                 3.4689                 0.8204
 IR Inten    --      0.6341                 1.0668                 0.2246

                     40                     41                     42
                      A                      A                      A
 Frequencies --   1035.0426              1055.5758              1058.1586
 Red. masses --      1.1844                 1.8634                 1.6227
 Frc consts  --      0.7476                 1.2233                 1.0705
 IR Inten    --     21.3838                73.1146                80.8768

                     43                     44                     45
                      A                      A                      A
 Frequencies --   1064.8526              1104.6890              1115.6851
 Red. masses --      1.8568                 2.0515                 1.6703
 Frc consts  --      1.2405                 1.4751                 1.2249
 IR Inten    --     75.6551                59.2966                77.1349

                     46                     47                     48
                      A                      A                      A
 Frequencies --   1124.1831              1142.2356              1153.9964
 Red. masses --      1.8906                 1.8175                 1.5582
 Frc consts  --      1.4078                 1.3971                 1.2226
 IR Inten    --     23.5382                 9.6472                 5.7590

                     49                     50                     51
                      A                      A                      A
 Frequencies --   1173.4795              1185.9978              1218.7606
 Red. masses --      1.6607                 1.1290                 1.1433
 Frc consts  --      1.3474                 0.9357                 1.0005
 IR Inten    --    109.3567                 0.1945                 8.4537

                     52                     53                     54
                      A                      A                      A
 Frequencies --   1229.2655              1240.5822              1294.5673
 Red. masses --      1.3546                 1.9283                 3.5629
 Frc consts  --      1.2060                 1.7485                 3.5180
 IR Inten    --     53.2840               342.6312               142.4618

                     55                     56                     57
                      A                      A                      A
 Frequencies --   1313.4004              1343.0245              1352.7567
 Red. masses --      3.2823                 1.3521                 2.7011
 Frc consts  --      3.3359                 1.4369                 2.9123
 IR Inten    --     21.7376                16.1538                13.4027

                     58                     59                     60
                      A                      A                      A
 Frequencies --   1367.7846              1414.0338              1448.4287
 Red. masses --      1.3844                 1.3530                 1.3109
 Frc consts  --      1.5259                 1.5940                 1.6203
 IR Inten    --      0.2872                50.4009               255.9167

                     61                     62                     63
                      A                      A                      A
 Frequencies --   1453.8052              1465.2245              1475.9563
 Red. masses --      1.3313                 1.4780                 1.0715
 Frc consts  --      1.6579                 1.8695                 1.3753
 IR Inten    --    130.7095               257.5415                68.6814

                     64                     65                     66
                      A                      A                      A
 Frequencies --   1491.2048              1494.6118              1501.3560
 Red. masses --      1.4567                 1.2214                 1.1548
 Frc consts  --      1.9086                 1.6075                 1.5336
 IR Inten    --     22.6650                 3.2655                25.0524

                     67                     68                     69
                      A                      A                      A
 Frequencies --   1505.4121              1508.2955              1521.0769
 Red. masses --      1.0704                 1.1162                 1.2567
 Frc consts  --      1.4292                 1.4961                 1.7132
 IR Inten    --      7.6318                68.8622               176.2939

                     70                     71                     72
                      A                      A                      A
 Frequencies --   1536.0290              1548.9524              1610.4395
 Red. masses --      1.7979                 2.3199                 4.1990
 Frc consts  --      2.4993                 3.2794                 6.4163
 IR Inten    --    681.1094                14.3645               537.6011

                     73                     74                     75
                      A                      A                      A
 Frequencies --   1653.9175              1655.7296              1677.4002
 Red. masses --      3.0695                 1.3050                 5.8360
 Frc consts  --      4.9470                 2.1079                 9.6747
 IR Inten    --     23.2595                45.6956                 0.0326

                     76                     77                     78
                      A                      A                      A
 Frequencies --   3021.3032              3065.3164              3069.7337
 Red. masses --      1.0493                 1.0350                 1.0385
 Frc consts  --      5.6431                 5.7298                 5.7657
 IR Inten    --    120.6341                47.7020                36.5348

                     79                     80                     81
                      A                      A                      A
 Frequencies --   3103.7019              3135.7573              3139.3071
 Red. masses --      1.0865                 1.1016                 1.1046
 Frc consts  --      6.1663                 6.3818                 6.4138
 IR Inten    --     52.6033                36.2243                15.5112

                     82                     83                     84
                      A                      A                      A
 Frequencies --   3147.7460              3171.7968              3182.6258
 Red. masses --      1.1033                 1.1036                 1.1002
 Frc consts  --      6.4411                 6.5417                 6.5660
 IR Inten    --     27.9844                17.3664                 3.7496

                     85                     86                     87
                      A                      A                      A
 Frequencies --   3191.5319              3198.4987              3202.5225
 Red. masses --      1.0869                 1.0882                 1.0881
 Frc consts  --      6.5229                 6.5594                 6.5751
 IR Inten    --      6.1936                 4.9094                 4.9399

                     88                     89                     90
                      A                      A                      A
 Frequencies --   3208.7472              3219.6176              3231.0413
 Red. masses --      1.0928                 1.0967                 1.0940
 Frc consts  --      6.6290                 6.6982                 6.7288
 IR Inten    --     28.9916                26.7233                10.8012

                     91                     92                     93
                      A                      A                      A
 Frequencies --   3439.1445              3585.3018              3668.0166
 Red. masses --      1.0633                 1.0860                 1.0771
 Frc consts  --      7.4095                 8.2251                 8.5385
 IR Inten    --     99.6789                47.3770                36.8422

 - Thermochemistry -
 -------------------
 Temperature   298.150 Kelvin.  Pressure   1.00000 Atm.
 Atom     1 has atomic number  6 and mass  12.00000

 Molecular mass:   206.14191 amu.
 Principal axes and moments of inertia in atomic units:
                           1         2         3
     Eigenvalues --  1659.885155472.053436041.96673
           X            0.99991   0.01288   0.00363
           Y           -0.01294   0.99977   0.01730
           Z           -0.00341  -0.01734   0.99984
 This molecule is an asymmetric top.
 Rotational symmetry number  1.
 Warning -- assumption of classical behavior for rotation
           may cause significant error
 Rotational temperatures (Kelvin)      0.05218     0.01583     0.01434
 Rotational constants (GHZ):           1.08727     0.32981     0.29870
    1 imaginary frequencies ignored.
 Zero-point vibrational energy     751175.5 (Joules/Mol)
                                  179.53525 (Kcal/Mol)
 Warning -- explicit consideration of  23 degrees of freedom as
           vibrations may cause significant error
 Vibrational temperatures:     68.62    95.76    99.64   116.46   129.17
          (Kelvin)            164.22   188.28   213.14   277.79   318.88
                              366.27   403.54   410.84   460.60   505.02
                              525.52   548.68   610.00   628.07   633.78
                              727.92   799.60   877.22   901.32   918.39
                             1038.66  1057.90  1059.65  1126.89  1151.07
                             1170.56  1265.32  1346.92  1387.18  1421.33
                             1461.28  1476.14  1484.58  1489.20  1518.74
                             1522.45  1532.09  1589.40  1605.22  1617.45
                             1643.42  1660.34  1688.38  1706.39  1753.52
                             1768.64  1784.92  1862.59  1889.69  1932.31
                             1946.32  1967.94  2034.48  2083.97  2091.70
                             2108.13  2123.57  2145.51  2150.41  2160.12
                             2165.95  2170.10  2188.49  2210.00  2228.60
                             2317.06  2379.62  2382.23  2413.40  4346.98
                             4410.31  4416.66  4465.53  4511.66  4516.76
                             4528.90  4563.51  4579.09  4591.90  4601.93
                             4607.72  4616.67  4632.31  4648.75  4948.16
                             5158.45  5277.46

 Zero-point correction=                           0.286108 (Hartree/Particle)
 Thermal correction to Energy=                    0.301771
 Thermal correction to Enthalpy=                  0.302715
 Thermal correction to Gibbs Free Energy=         0.243026
 Sum of electronic and zero-point Energies=           -652.563581
 Sum of electronic and thermal Energies=              -652.547918
 Sum of electronic and thermal Enthalpies=            -652.546973
 Sum of electronic and thermal Free Energies=         -652.606662

                     E (Thermal)             CV                S
                      KCal/Mol        Cal/Mol-Kelvin    Cal/Mol-Kelvin
 Total                  189.364             58.685            125.626
 Electronic               0.000              0.000              0.000
 Translational            0.889              2.981             41.874
 Rotational               0.889              2.981             32.373
 Vibrational            187.587             52.724             51.378
 Vibration     1          0.595              1.978              4.911
 Vibration     2          0.598              1.970              4.253
 Vibration     3          0.598              1.969              4.174
 Vibration     4          0.600              1.962              3.868
 Vibration     5          0.602              1.956              3.665
 Vibration     6          0.607              1.938              3.197
 Vibration     7          0.612              1.922              2.933
 Vibration     8          0.618              1.905              2.696
 Vibration     9          0.635              1.849              2.198
 Vibration    10          0.648              1.808              1.946
 Vibration    11          0.665              1.755              1.699
 Vibration    12          0.680              1.710              1.531
 Vibration    13          0.683              1.701              1.500
 Vibration    14          0.706              1.635              1.309
 Vibration    15          0.728              1.573              1.162
 Vibration    16          0.738              1.544              1.100
 Vibration    17          0.751              1.510              1.034
 Vibration    18          0.786              1.418              0.879
 Vibration    19          0.797              1.391              0.838
 Vibration    20          0.800              1.382              0.825
 Vibration    21          0.861              1.237              0.643
 Vibration    22          0.911              1.127              0.532
 Vibration    23          0.969              1.011              0.433

 Optimization completed.
    -- Stationary point found.
 Normal termination of Gaussian 16 at Sun Jan 31 05:11:10 2021.
