 Gaussian 16, Revision A.03,
 Gaussian 16:  ES64L-G16RevA.03 25-Dec-2016

 ----------------------------------------------------------------------
 # wB97XD def2tzvp, opt=(ts, noeigen, calcfc, maxcycles=70, maxstep=1),
  freq=noraman, scrf=(iefpcm, solvent=water)
 ----------------------------------------------------------------------

 ------------------------
 0_iteration/TS-970-0.out
 ------------------------
 Symbolic Z-matrix:
 Charge =  0 Multiplicity = 1

 SCF Done:  E(RwB97XD) =  -1246.31378311     A.U. after   15 cycles
 SCF Done:  E(RwB97XD) =  -1246.31376436     A.U. after   10 cycles
 SCF Done:  E(RwB97XD) =  -1246.31374869     A.U. after   10 cycles
 SCF Done:  E(RwB97XD) =  -1246.31373609     A.U. after   10 cycles
 SCF Done:  E(RwB97XD) =  -1246.31372664     A.U. after   10 cycles
 SCF Done:  E(RwB97XD) =  -1246.31372051     A.U. after   10 cycles
 SCF Done:  E(RwB97XD) =  -1246.31371861     A.U. after   10 cycles
 SCF Done:  E(RwB97XD) =  -1246.31372729     A.U. after   10 cycles
 SCF Done:  E(RwB97XD) =  -1246.31376212     A.U. after   10 cycles
 SCF Done:  E(RwB97XD) =  -1246.31379040     A.U. after   10 cycles
 SCF Done:  E(RwB97XD) =  -1246.31606185     A.U. after   10 cycles
 SCF Done:  E(RwB97XD) =  -1246.31605744     A.U. after   10 cycles
 SCF Done:  E(RwB97XD) =  -1246.31606331     A.U. after   10 cycles
 SCF Done:  E(RwB97XD) =  -1246.31606255     A.U. after   10 cycles
 SCF Done:  E(RwB97XD) =  -1246.31605922     A.U. after   10 cycles
 SCF Done:  E(RwB97XD) =  -1246.31606460     A.U. after   10 cycles
 SCF Done:  E(RwB97XD) =  -1246.31606473     A.U. after    8 cycles
 SCF Done:  E(RwB97XD) =  -1246.31606465     A.U. after    7 cycles
 SCF Done:  E(RwB97XD) =  -1246.31606470     A.U. after    7 cycles
 Optimization completed.
    -- Stationary point found.
 Normal termination of Gaussian 16 at Sat Feb 27 21:06:31 2021.

 ---------------------------------------------------------------------
 #N Geom=AllCheck Guess=TCheck SCRF=Check GenChk RwB97XD/def2TZVP Freq
 ---------------------------------------------------------------------

 Structure from the checkpoint file:  "/beegfs/scratch/user/q/tla25/Gau-6960.chk"
 ------------------------
 0_iteration/TS-970-0.out
 ------------------------
 Charge =  0 Multiplicity = 1

                         Standard orientation:
 ---------------------------------------------------------------------
 Center     Atomic      Atomic             Coordinates (Angstroms)
 Number     Number       Type             X           Y           Z
 ---------------------------------------------------------------------
      1          6           0        0.596112   -0.823578    0.506220
      2          6           0        1.974135   -0.546542    0.220551
      3          8           0        2.852307   -1.124168    0.871317
      4          6           0       -0.575563   -0.303297   -0.014901
      5          6           0       -0.140901    2.210458    1.121824
      6          1           0       -0.425575    2.955735    1.862972
      7          1           0        0.767836    1.707591    1.454031
      8          1           0        0.037862    2.700675    0.167550
      9          7           0       -1.184717    1.206785    0.960344
     10          1           0       -1.454027    0.810082    1.854466
     11          1           0       -2.016657    1.583001    0.516972
     12         17           0       -2.022304   -1.301701    0.265157
     13         17           0       -0.630647    0.404445   -1.629624
     14          1           0        0.451114   -1.517706    1.324604
     15          6           0        2.415112    0.406149   -0.871423
     16          1           0        3.484068    0.576494   -0.761236
     17          1           0        2.227166   -0.034604   -1.851834
     18          1           0        1.889570    1.358810   -0.838163
 ---------------------------------------------------------------------

 SCF Done:  E(RwB97XD) =  -1246.31606470     A.U. after    1 cycles

 The electronic state is 1-A.
 Alpha  occ. eigenvalues -- -101.71442-101.71073 -19.20739 -14.50231 -10.45641
 Alpha  occ. eigenvalues --  -10.36105 -10.32381 -10.27272 -10.26442  -9.60042
 Alpha  occ. eigenvalues --   -9.59666  -7.34711  -7.34331  -7.33807  -7.33773
 Alpha  occ. eigenvalues --   -7.33430  -7.33403  -1.11540  -1.06443  -1.00709
 Alpha  occ. eigenvalues --   -0.93798  -0.86320  -0.81749  -0.79849  -0.70511
 Alpha  occ. eigenvalues --   -0.64839  -0.61926  -0.58928  -0.57510  -0.55776
 Alpha  occ. eigenvalues --   -0.55449  -0.51667  -0.50869  -0.49252  -0.48833
 Alpha  occ. eigenvalues --   -0.48112  -0.45394  -0.43520  -0.42665  -0.41760
 Alpha  occ. eigenvalues --   -0.39798  -0.39401  -0.32595  -0.29189
 Alpha virt. eigenvalues --    0.03412   0.05753   0.09021   0.10580   0.13214
 Alpha virt. eigenvalues --    0.13561   0.15684   0.16334   0.18080   0.19057
 Alpha virt. eigenvalues --    0.19145   0.20690   0.21309   0.23253   0.23550

 Mulliken charges:
               1
     1  C   -0.460922
     2  C    0.273540
     3  O   -0.505475
     4  C    0.194318
     5  C   -0.338378
     6  H    0.172403
     7  H    0.169413
     8  H    0.169211
     9  N   -0.295366
    10  H    0.290752
    11  H    0.299095
    12  Cl  -0.078214
    13  Cl  -0.058545
    14  H    0.133584
    15  C   -0.364675
    16  H    0.123459
    17  H    0.143723
    18  H    0.132076
 Sum of Mulliken charges =  -0.00000

 Dipole moment (field-independent basis, Debye):
    X=             -6.9720    Y=              7.4468    Z=              0.9228  Tot=             10.2428
 Quadrupole moment (field-independent basis, Debye-Ang):
   XX=            -80.7659   YY=            -64.9278   ZZ=            -65.0318
   XY=              3.6229   XZ=            -11.3667   YZ=              6.2570

  Exact polarizability: 175.499 -12.659 132.417   2.219  -7.082 122.773
 Approx polarizability: 137.457  -9.174 111.615   3.450  -7.187 107.828

 ******    1 imaginary frequencies (negative Signs) ******

                      1                      2                      3
                      A                      A                      A
 Frequencies --   -355.4311                75.1935                94.5099
 Red. masses --      6.0991                 5.1236                 2.9553
 Frc consts  --      0.4540                 0.0171                 0.0156
 IR Inten    --    863.7262                 5.7314                 1.8738

                      4                      5                      6
                      A                      A                      A
 Frequencies --    124.9339               176.5875               197.2873
 Red. masses --      3.1075                 6.5022                 2.1191
 Frc consts  --      0.0286                 0.1195                 0.0486
 IR Inten    --      4.5269                 4.4474                 0.1392

                      7                      8                      9
                      A                      A                      A
 Frequencies --    218.4799               241.9079               254.8072
 Red. masses --      1.8111                 2.7426                 1.4797
 Frc consts  --      0.0509                 0.0946                 0.0566
 IR Inten    --      0.3559                 9.9063                 1.8257

                     10                     11                     12
                      A                      A                      A
 Frequencies --    281.9531               298.5951               342.5482
 Red. masses --      2.6893                 3.7743                 4.5322
 Frc consts  --      0.1260                 0.1983                 0.3133
 IR Inten    --      9.8875                 1.9830                31.2140

                     13                     14                     15
                      A                      A                      A
 Frequencies --    412.9048               511.8905               548.8405
 Red. masses --     10.8091                 4.4886                 3.1808
 Frc consts  --      1.0858                 0.6930                 0.5645
 IR Inten    --      4.0982               107.1810                54.0605

                     16                     17                     18
                      A                      A                      A
 Frequencies --    576.7518               637.4094               715.5919
 Red. masses --      2.0705                 3.0410                 1.4971
 Frc consts  --      0.4058                 0.7279                 0.4517
 IR Inten    --      4.5275                19.0981                68.0802

                     19                     20                     21
                      A                      A                      A
 Frequencies --    777.4247               818.6823               857.7750
 Red. masses --      1.7745                 6.4940                 3.1537
 Frc consts  --      0.6319                 2.5644                 1.3672
 IR Inten    --    124.8639               219.6786                66.8155

                     22                     23                     24
                      A                      A                      A
 Frequencies --   1008.4989              1033.2512              1048.9673
 Red. masses --      1.1187                 1.4907                 1.7922
 Frc consts  --      0.6704                 0.9377                 1.1619
 IR Inten    --     38.6169                98.6773                11.4964

                     25                     26                     27
                      A                      A                      A
 Frequencies --   1059.7599              1084.3920              1234.5835
 Red. masses --      1.1619                 4.8505                 1.3825
 Frc consts  --      0.7688                 3.3606                 1.2415
 IR Inten    --     61.6515                56.0191                26.9831

                     28                     29                     30
                      A                      A                      A
 Frequencies --   1262.3589              1312.7139              1346.7551
 Red. masses --      1.6734                 2.7599                 1.3254
 Frc consts  --      1.5711                 2.8021                 1.4164
 IR Inten    --    517.7254               223.4298                 2.9277

                     31                     32                     33
                      A                      A                      A
 Frequencies --   1400.0962              1444.0318              1463.9199
 Red. masses --      1.3980                 1.4433                 1.1860
 Frc consts  --      1.6146                 1.7732                 1.4975
 IR Inten    --     65.8794               444.4069               228.9953

                     34                     35                     36
                      A                      A                      A
 Frequencies --   1475.0877              1490.0582              1498.9471
 Red. masses --      1.9639                 1.0534                 1.0485
 Frc consts  --      2.5178                 1.3780                 1.3881
 IR Inten    --    528.5353                30.5725                16.7974

                     37                     38                     39
                      A                      A                      A
 Frequencies --   1510.6636              1637.8243              1644.1054
 Red. masses --      1.0441                 1.1142                 7.1670
 Frc consts  --      1.4038                 1.7610                11.4142
 IR Inten    --     28.1843               123.0596               683.5201

                     40                     41                     42
                      A                      A                      A
 Frequencies --   3071.2964              3073.9692              3149.3947
 Red. masses --      1.0337                 1.0371                 1.1004
 Frc consts  --      5.7451                 5.7741                 6.4309
 IR Inten    --     14.8162                12.7586                13.6297

                     43                     44                     45
                      A                      A                      A
 Frequencies --   3151.2100              3174.0340              3174.4968
 Red. masses --      1.1021                 1.1059                 1.1034
 Frc consts  --      6.4480                 6.5640                 6.5514
 IR Inten    --      8.5105                 8.9352                25.0683

                     46                     47                     48
                      A                      A                      A
 Frequencies --   3196.8019              3510.5705              3596.8038
 Red. masses --      1.0869                 1.0504                 1.0973
 Frc consts  --      6.5445                 7.6273                 8.3641
 IR Inten    --      1.2933                77.0736                65.5827

 - Thermochemistry -
 -------------------
 Temperature   298.150 Kelvin.  Pressure   1.00000 Atm.
 Atom     1 has atomic number  6 and mass  12.00000

 Molecular mass:   169.00612 amu.
 Principal axes and moments of inertia in atomic units:
                           1         2         3
     Eigenvalues --  1316.592962221.169362381.50388
           X            0.99925   0.00006  -0.03872
           Y            0.00747   0.98095   0.19411
           Z            0.03799  -0.19425   0.98022
 This molecule is an asymmetric top.
 Rotational symmetry number  1.
 Warning -- assumption of classical behavior for rotation
           may cause significant error
 Rotational temperatures (Kelvin)      0.06579     0.03899     0.03637
 Rotational constants (GHZ):           1.37077     0.81252     0.75782
    1 imaginary frequencies ignored.
 Zero-point vibrational energy     366168.9 (Joules/Mol)
                                   87.51648 (Kcal/Mol)
 Warning -- explicit consideration of  15 degrees of freedom as
           vibrations may cause significant error
 Vibrational temperatures:    108.19   135.98   179.75   254.07   283.85
          (Kelvin)            314.34   348.05   366.61   405.67   429.61
                              492.85   594.08   736.50   789.66   829.82
                              917.09  1029.58  1118.54  1177.90  1234.15
                             1451.00  1486.62  1509.23  1524.76  1560.20
                             1776.29  1816.25  1888.70  1937.68  2014.43
                             2077.64  2106.25  2122.32  2143.86  2156.65
                             2173.51  2356.46  2365.50  4418.91  4422.76
                             4531.28  4533.89  4566.73  4567.39  4599.48
                             5050.93  5175.00

 Zero-point correction=                           0.139466 (Hartree/Particle)
 Thermal correction to Energy=                    0.150015
 Thermal correction to Enthalpy=                  0.150959
 Thermal correction to Gibbs Free Energy=         0.103071
 Sum of electronic and zero-point Energies=          -1246.176598
 Sum of electronic and thermal Energies=             -1246.166050
 Sum of electronic and thermal Enthalpies=           -1246.165106
 Sum of electronic and thermal Free Energies=        -1246.212994

                     E (Thermal)             CV                S
                      KCal/Mol        Cal/Mol-Kelvin    Cal/Mol-Kelvin
 Total                   94.136             37.299            100.789
 Electronic               0.000              0.000              0.000
 Translational            0.889              2.981             41.282
 Rotational               0.889              2.981             30.322
 Vibrational             92.358             31.337             29.185
 Vibration     1          0.599              1.966              4.013
 Vibration     2          0.603              1.953              3.564
 Vibration     3          0.610              1.928              3.023
 Vibration     4          0.628              1.871              2.364
 Vibration     5          0.637              1.844              2.158
 Vibration     6          0.646              1.813              1.972
 Vibration     7          0.658              1.776              1.789
 Vibration     8          0.665              1.755              1.697
 Vibration     9          0.681              1.707              1.522
 Vibration    10          0.692              1.676              1.425
 Vibration    11          0.722              1.590              1.200
 Vibration    12          0.777              1.442              0.916
 Vibration    13          0.867              1.224              0.629
 Vibration    14          0.904              1.142              0.547
 Vibration    15          0.933              1.082              0.491

 Optimization completed.
    -- Stationary point found.
 Normal termination of Gaussian 16 at Sat Feb 27 21:16:49 2021.
