 Gaussian 16, Revision A.03,
 Gaussian 16:  ES64L-G16RevA.03 25-Dec-2016

 ----------------------------------------------------------------------
 # wB97XD def2tzvp, opt=(ts, noeigen, calcfc, maxcycles=70, maxstep=3),
  freq=noraman, scrf=(iefpcm, solvent=water)
 ----------------------------------------------------------------------

 ------------------------
 0_iteration/TS-907-0.out
 ------------------------
 Symbolic Z-matrix:
 Charge =  0 Multiplicity = 1

 SCF Done:  E(RwB97XD) =  -3415.71291821     A.U. after   15 cycles
 SCF Done:  E(RwB97XD) =  -3415.71281639     A.U. after   12 cycles
 SCF Done:  E(RwB97XD) =  -3415.71275627     A.U. after   12 cycles
 SCF Done:  E(RwB97XD) =  -3415.71274565     A.U. after   11 cycles
 SCF Done:  E(RwB97XD) =  -3415.71279241     A.U. after   10 cycles
 SCF Done:  E(RwB97XD) =  -3415.71295198     A.U. after   10 cycles
 SCF Done:  E(RwB97XD) =  -3415.71319261     A.U. after   10 cycles
 SCF Done:  E(RwB97XD) =  -3415.71349292     A.U. after   10 cycles
 SCF Done:  E(RwB97XD) =  -3415.71383430     A.U. after   10 cycles
 SCF Done:  E(RwB97XD) =  -3415.71416368     A.U. after   11 cycles
 SCF Done:  E(RwB97XD) =  -3415.71446363     A.U. after   11 cycles
 SCF Done:  E(RwB97XD) =  -3415.71471931     A.U. after   11 cycles
 SCF Done:  E(RwB97XD) =  -3415.71488673     A.U. after   11 cycles
 SCF Done:  E(RwB97XD) =  -3415.71495454     A.U. after   11 cycles
 SCF Done:  E(RwB97XD) =  -3415.71496008     A.U. after    9 cycles
 SCF Done:  E(RwB97XD) =  -3415.71496141     A.U. after    9 cycles
 SCF Done:  E(RwB97XD) =  -3415.71496210     A.U. after    8 cycles
 SCF Done:  E(RwB97XD) =  -3415.71496149     A.U. after    8 cycles
 SCF Done:  E(RwB97XD) =  -3415.71496205     A.U. after    8 cycles
 Optimization completed.
    -- Stationary point found.
 Normal termination of Gaussian 16 at Tue Apr 13 08:01:08 2021.

 ---------------------------------------------------------------------
 #N Geom=AllCheck Guess=TCheck SCRF=Check GenChk RwB97XD/def2TZVP Freq
 ---------------------------------------------------------------------

 Structure from the checkpoint file:  "/beegfs/scratch/user/q/tla25/Gau-297135.chk"
 ------------------------
 0_iteration/TS-907-0.out
 ------------------------
 Charge =  0 Multiplicity = 1

                         Standard orientation:
 ---------------------------------------------------------------------
 Center     Atomic      Atomic             Coordinates (Angstroms)
 Number     Number       Type             X           Y           Z
 ---------------------------------------------------------------------
      1          6           0        0.339681    0.281044   -0.331778
      2          6           0        1.113365    1.505185   -0.440665
      3          8           0        0.616818    2.593093   -0.758072
      4          6           0       -1.047946    0.208526   -0.419350
      5          6           0       -1.254508    1.069525    2.242146
      6          1           0       -1.755911    2.010973    2.031379
      7          1           0       -1.403379    0.808048    3.289011
      8          1           0       -0.186116    1.182599    2.050794
      9          7           0       -1.768490    0.033403    1.355399
     10          1           0       -1.466739   -0.888047    1.651778
     11          1           0       -2.781137    0.028149    1.310328
     12         17           0       -1.738758   -1.335030   -1.033417
     13          6           0       -1.876032    1.361965   -0.918134
     14          1           0       -1.658426    2.262337   -0.353180
     15          1           0       -1.629561    1.557802   -1.960557
     16          1           0       -2.933663    1.115005   -0.847865
     17         35           0        1.260528   -1.310713    0.222104
     18          7           0        2.458262    1.431973   -0.225715
     19          1           0        2.890174    0.629277    0.192630
     20          1           0        2.954843    2.304463   -0.206380
 ---------------------------------------------------------------------

 SCF Done:  E(RwB97XD) =  -3415.71496205     A.U. after    1 cycles

 The electronic state is 1-A.
 Alpha  occ. eigenvalues -- -483.12757-101.69729 -62.67592 -56.46694 -56.46361
 Alpha  occ. eigenvalues --  -56.46354 -19.19979 -14.49116 -14.43780 -10.40992
 Alpha  occ. eigenvalues --  -10.38795 -10.31921 -10.31111 -10.28732  -9.58338
 Alpha  occ. eigenvalues --   -8.81706  -7.32964  -7.32132  -7.32087  -6.63810
 Alpha  occ. eigenvalues --   -6.62748  -6.62727  -2.74207  -2.73899  -2.73880
 Alpha  occ. eigenvalues --   -2.73022  -2.73021  -1.12863  -1.04963  -0.99550
 Alpha  occ. eigenvalues --   -0.97807  -0.90455  -0.85838  -0.79389  -0.78939
 Alpha  occ. eigenvalues --   -0.71786  -0.64421  -0.63682  -0.60576  -0.58522
 Alpha  occ. eigenvalues --   -0.56236  -0.55922  -0.53498  -0.50980  -0.50398
 Alpha  occ. eigenvalues --   -0.49777  -0.48497  -0.47151  -0.45388  -0.44903
 Alpha  occ. eigenvalues --   -0.41060  -0.39466  -0.38967  -0.37336  -0.35037
 Alpha  occ. eigenvalues --   -0.33486  -0.27923
 Alpha virt. eigenvalues --    0.04347   0.06879   0.10179   0.10904   0.13234
 Alpha virt. eigenvalues --    0.14421   0.15058   0.15268   0.17195   0.17853
 Alpha virt. eigenvalues --    0.19591   0.19949   0.20399   0.21786   0.22024

 Mulliken charges:
               1
     1  C   -0.227951
     2  C    0.311592
     3  O   -0.532675
     4  C    0.144415
     5  C   -0.304938
     6  H    0.161945
     7  H    0.162655
     8  H    0.157633
     9  N   -0.325952
    10  H    0.285731
    11  H    0.293232
    12  Cl  -0.121095
    13  C   -0.349989
    14  H    0.150642
    15  H    0.149228
    16  H    0.144863
    17  Br  -0.164375
    18  N   -0.468718
    19  H    0.266050
    20  H    0.267705
 Sum of Mulliken charges =  -0.00000

 Dipole moment (field-independent basis, Debye):
    X=             -3.7025    Y=             -1.0290    Z=              6.3211  Tot=              7.3976
 Quadrupole moment (field-independent basis, Debye-Ang):
   XX=            -63.0755   YY=            -91.2902   ZZ=            -75.4596
   XY=             -1.0420   XZ=             -4.7934   YZ=              3.5821

  Exact polarizability: 181.657   5.229 165.014  -2.630  -3.669 135.454
 Approx polarizability: 143.376   1.520 140.515  -0.612  -3.960 115.727

 ******    1 imaginary frequencies (negative Signs) ******

                      1                      2                      3
                      A                      A                      A
 Frequencies --   -364.1827                56.9618                58.9722
 Red. masses --      5.4996                 5.9955                 4.7503
 Frc consts  --      0.4298                 0.0115                 0.0097
 IR Inten    --    772.8350                10.2811                12.3448

                      4                      5                      6
                      A                      A                      A
 Frequencies --     78.9387               124.5478               169.7257
 Red. masses --      2.3396                 2.6651                21.1927
 Frc consts  --      0.0086                 0.0244                 0.3597
 IR Inten    --      0.9470                17.5531                 8.2825

                      7                      8                      9
                      A                      A                      A
 Frequencies --    182.0968               188.9471               210.4289
 Red. masses --      1.1497                 4.9549                 1.2965
 Frc consts  --      0.0225                 0.1042                 0.0338
 IR Inten    --      7.4037                18.2359               265.3501

                     10                     11                     12
                      A                      A                      A
 Frequencies --    230.7218               253.3299               301.4567
 Red. masses --      3.4830                 1.2714                 2.9965
 Frc consts  --      0.1092                 0.0481                 0.1604
 IR Inten    --     19.5567                 0.6588                 9.4040

                     13                     14                     15
                      A                      A                      A
 Frequencies --    314.8754               337.9926               350.2817
 Red. masses --      3.4420                 3.8701                 6.4872
 Frc consts  --      0.2011                 0.2605                 0.4690
 IR Inten    --     16.0057                 2.9225                18.8396

                     16                     17                     18
                      A                      A                      A
 Frequencies --    391.0402               460.3373               515.9119
 Red. masses --      5.7132                 3.4094                 2.3554
 Frc consts  --      0.5147                 0.4257                 0.3694
 IR Inten    --     13.9200                35.5155                67.9309

                     19                     20                     21
                      A                      A                      A
 Frequencies --    529.8050               608.0285               680.8738
 Red. masses --      1.4193                 3.1884                 1.4830
 Frc consts  --      0.2347                 0.6945                 0.4051
 IR Inten    --     20.2369               104.2621                33.2445

                     22                     23                     24
                      A                      A                      A
 Frequencies --    750.5475               784.4973               959.5469
 Red. masses --      4.2796                 6.1563                 4.7834
 Frc consts  --      1.4204                 2.2323                 2.5949
 IR Inten    --     76.2704                60.7440                72.1843

                     25                     26                     27
                      A                      A                      A
 Frequencies --   1003.4964              1040.1464              1059.8913
 Red. masses --      1.0878                 1.1379                 1.5223
 Frc consts  --      0.6454                 0.7253                 1.0075
 IR Inten    --     15.0046                43.5331                67.7019

                     28                     29                     30
                      A                      A                      A
 Frequencies --   1066.2054              1084.8344              1094.6750
 Red. masses --      1.8751                 3.8976                 1.8051
 Frc consts  --      1.2559                 2.7025                 1.2744
 IR Inten    --     98.9862                 4.3335                35.0045

                     31                     32                     33
                      A                      A                      A
 Frequencies --   1136.8493              1223.4811              1339.4281
 Red. masses --      3.8352                 1.3933                 1.3342
 Frc consts  --      2.9204                 1.2288                 1.4103
 IR Inten    --     65.0364                33.6241                 0.1978

                     34                     35                     36
                      A                      A                      A
 Frequencies --   1372.1043              1410.8109              1429.2793
 Red. masses --      4.0704                 1.8425                 1.9837
 Frc consts  --      4.5151                 2.1607                 2.3876
 IR Inten    --    352.2703               711.0768               458.8062

                     37                     38                     39
                      A                      A                      A
 Frequencies --   1448.8270              1465.4334              1486.1527
 Red. masses --      1.0603                 1.1551                 1.1813
 Frc consts  --      1.3113                 1.4615                 1.5372
 IR Inten    --     20.8585                 5.5319                53.4180

                     40                     41                     42
                      A                      A                      A
 Frequencies --   1494.6692              1507.3428              1599.2066
 Red. masses --      1.0552                 1.0313                 1.3945
 Frc consts  --      1.3889                 1.3805                 2.1012
 IR Inten    --     38.9522                18.7145               346.3830

                     43                     44                     45
                      A                      A                      A
 Frequencies --   1642.6998              1656.7108              3068.8254
 Red. masses --      1.0890                 4.6628                 1.0342
 Frc consts  --      1.7314                 7.5403                 5.7383
 IR Inten    --     61.1348               582.6737                30.0543

                     46                     47                     48
                      A                      A                      A
 Frequencies --   3085.4569              3144.5877              3161.3512
 Red. masses --      1.0368                 1.1036                 1.1034
 Frc consts  --      5.8153                 6.4296                 6.4972
 IR Inten    --     16.1125                 8.5109                14.2347

                     49                     50                     51
                      A                      A                      A
 Frequencies --   3173.5518              3194.7655              3524.0747
 Red. masses --      1.1053                 1.1014                 1.0509
 Frc consts  --      6.5590                 6.6235                 7.6892
 IR Inten    --     12.7850                 2.7016                53.0002

                     52                     53                     54
                      A                      A                      A
 Frequencies --   3606.3081              3628.6148              3754.1443
 Red. masses --      1.0964                 1.0456                 1.1046
 Frc consts  --      8.4015                 8.1113                 9.1724
 IR Inten    --     56.7401                72.0874                98.7207

 - Thermochemistry -
 -------------------
 Temperature   298.150 Kelvin.  Pressure   1.00000 Atm.
 Atom     1 has atomic number  6 and mass  12.00000

 Molecular mass:   227.96650 amu.
 Principal axes and moments of inertia in atomic units:
                           1         2         3
     Eigenvalues --  2136.785642439.580423284.45527
           X            0.99638   0.07479  -0.04036
           Y           -0.07412   0.99709   0.01775
           Z            0.04157  -0.01470   0.99903
 This molecule is an asymmetric top.
 Rotational symmetry number  1.
 Warning -- assumption of classical behavior for rotation
           may cause significant error
 Rotational temperatures (Kelvin)      0.04053     0.03550     0.02637
 Rotational constants (GHZ):           0.84461     0.73978     0.54948
    1 imaginary frequencies ignored.
 Zero-point vibrational energy     409384.8 (Joules/Mol)
                                   97.84531 (Kcal/Mol)
 Warning -- explicit consideration of  19 degrees of freedom as
           vibrations may cause significant error
 Vibrational temperatures:     81.96    84.85   113.58   179.20   244.20
          (Kelvin)            262.00   271.85   302.76   331.96   364.49
                              433.73   453.04   486.30   503.98   562.62
                              662.32   742.28   762.27   874.82   979.63
                             1079.87  1128.72  1380.57  1443.81  1496.54
                             1524.95  1534.03  1560.83  1574.99  1635.67
                             1760.32  1927.14  1974.15  2029.84  2056.41
                             2084.54  2108.43  2138.24  2150.50  2168.73
                             2300.90  2363.48  2383.64  4415.36  4439.28
                             4524.36  4548.48  4566.03  4596.56  5070.36
                             5188.67  5220.77  5401.38

 Zero-point correction=                           0.155926 (Hartree/Particle)
 Thermal correction to Energy=                    0.168500
 Thermal correction to Enthalpy=                  0.169444
 Thermal correction to Gibbs Free Energy=         0.116164
 Sum of electronic and zero-point Energies=          -3415.559036
 Sum of electronic and thermal Energies=             -3415.546462
 Sum of electronic and thermal Enthalpies=           -3415.545518
 Sum of electronic and thermal Free Energies=        -3415.598798

                     E (Thermal)             CV                S
                      KCal/Mol        Cal/Mol-Kelvin    Cal/Mol-Kelvin
 Total                  105.735             43.551            112.137
 Electronic               0.000              0.000              0.000
 Translational            0.889              2.981             42.174
 Rotational               0.889              2.981             31.216
 Vibrational            103.958             37.589             38.747
 Vibration     1          0.596              1.975              4.560
 Vibration     2          0.596              1.974              4.491
 Vibration     3          0.600              1.963              3.917
 Vibration     4          0.610              1.928              3.029
 Vibration     5          0.625              1.880              2.439
 Vibration     6          0.630              1.864              2.307
 Vibration     7          0.633              1.855              2.238
 Vibration     8          0.643              1.825              2.040
 Vibration     9          0.652              1.794              1.873
 Vibration    10          0.664              1.757              1.707
 Vibration    11          0.693              1.671              1.409
 Vibration    12          0.702              1.645              1.337
 Vibration    13          0.718              1.600              1.222
 Vibration    14          0.727              1.575              1.165
 Vibration    15          0.759              1.489              0.996
 Vibration    16          0.818              1.338              0.765
 Vibration    17          0.871              1.215              0.620
 Vibration    18          0.885              1.184              0.588
 Vibration    19          0.967              1.015              0.436

 Optimization completed.
    -- Stationary point found.
 Normal termination of Gaussian 16 at Tue Apr 13 08:08:08 2021.
