 Gaussian 16, Revision A.03,
 Gaussian 16:  ES64L-G16RevA.03 25-Dec-2016

 ----------------------------------------------------------------------
 # wB97XD def2tzvp, opt=(ts, noeigen, calcfc, maxcycles=70, maxstep=5),
  freq=noraman, scrf=(iefpcm, solvent=water)
 ----------------------------------------------------------------------

 ------------------------
 2_iteration/TS-912-2.out
 ------------------------
 Symbolic Z-matrix:
 Charge =  0 Multiplicity = 1

 SCF Done:  E(RwB97XD) =  -3591.37871504     A.U. after   15 cycles
 Optimization completed.
    -- Stationary point found.
 Normal termination of Gaussian 16 at Sun Feb 28 20:28:24 2021.

 ---------------------------------------------------------------------
 #N Geom=AllCheck Guess=TCheck SCRF=Check GenChk RwB97XD/def2TZVP Freq
 ---------------------------------------------------------------------

 Structure from the checkpoint file:  "/beegfs/scratch/user/q/tla25/Gau-40307.chk"
 ------------------------
 2_iteration/TS-912-2.out
 ------------------------
 Charge =  0 Multiplicity = 1

                         Standard orientation:
 ---------------------------------------------------------------------
 Center     Atomic      Atomic             Coordinates (Angstroms)
 Number     Number       Type             X           Y           Z
 ---------------------------------------------------------------------
      1          6           0       -0.556331   -0.509349   -0.106940
      2          6           0        0.630639   -1.176020    0.351280
      3          8           0        0.615818   -2.287280    0.879930
      4          6           0       -0.739279    0.850431   -0.368960
      5          6           0       -1.905017    2.992803    1.432700
      6          1           0       -2.435337    3.189093    2.365870
      7          1           0       -1.012206    3.613422    1.399560
      8          1           0       -2.552587    3.253313    0.596820
      9          7           0       -1.525048    1.587242    1.318860
     10          1           0       -0.826429    1.328932    2.006650
     11          1           0       -2.323639    0.976663    1.452440
     12         17           0       -2.084869    1.284303   -1.444000
     13          6           0        0.372022    1.850040   -0.530910
     14          1           0        1.086722    1.793390    0.285240
     15          1           0        0.894392    1.668200   -1.468560
     16          1           0       -0.049047    2.851461   -0.568480
     17         35           0       -2.130362   -1.595247    0.020850
     18          6           0        1.981869   -0.557441    0.125710
     19          6           0        2.496000   -0.437382   -1.159350
     20          6           0        3.776170    0.059347   -1.353790
     21          6           0        4.543270    0.449606   -0.265300
     22          6           0        4.034190    0.323277    1.020460
     23          6           0        2.762270   -0.191752    1.216740
     24          1           0        1.889119   -0.726811   -2.008940
     25          1           0        4.173120    0.146227   -2.357250
     26          1           0        5.538401    0.847575   -0.417790
     27          1           0        4.631181    0.623266    1.872340
     28          1           0        2.365710   -0.298052    2.219110
 ---------------------------------------------------------------------

 SCF Done:  E(RwB97XD) =  -3591.37871504     A.U. after    1 cycles

 The electronic state is 1-A.
 Alpha  occ. eigenvalues -- -483.12351-101.70485 -62.67185 -56.46295 -56.45956
 Alpha  occ. eigenvalues --  -56.45937 -19.22140 -14.48328 -10.42016 -10.37315
 Alpha  occ. eigenvalues --  -10.32135 -10.31897 -10.30289 -10.29654 -10.29550
 Alpha  occ. eigenvalues --  -10.29523 -10.29420 -10.29396 -10.29319  -9.59087
 Alpha  occ. eigenvalues --   -8.81298  -7.33729  -7.32884  -7.32816  -6.63428
 Alpha  occ. eigenvalues --   -6.62343  -6.62289  -2.73822  -2.73513  -2.73470
 Alpha  occ. eigenvalues --   -2.72591  -2.72591  -1.13179  -1.04268  -0.98980
 Alpha  occ. eigenvalues --   -0.97100  -0.91040  -0.87532  -0.85721  -0.85559
 Alpha  occ. eigenvalues --   -0.80181  -0.78894  -0.73355  -0.70994  -0.69019
 Alpha  occ. eigenvalues --   -0.63527  -0.63098  -0.60325  -0.57753  -0.57104
 Alpha  occ. eigenvalues --   -0.55895  -0.55395  -0.55106  -0.53365  -0.51517
 Alpha  occ. eigenvalues --   -0.51442  -0.50328  -0.49670  -0.48300  -0.48007
 Alpha  occ. eigenvalues --   -0.46270  -0.45659  -0.44693  -0.44097  -0.43014
 Alpha  occ. eigenvalues --   -0.41342  -0.39580  -0.38626  -0.36454  -0.34974
 Alpha  occ. eigenvalues --   -0.34144  -0.32355  -0.28860
 Alpha virt. eigenvalues --    0.00921   0.04606   0.05209   0.06482   0.09714
 Alpha virt. eigenvalues --    0.11135   0.12810   0.13380   0.13698   0.14867
 Alpha virt. eigenvalues --    0.15442   0.16877   0.17432   0.18377   0.18685

 Mulliken charges:
               1
     1  C   -0.146390
     2  C    0.187440
     3  O   -0.455803
     4  C    0.117083
     5  C   -0.291663
     6  H    0.157691
     7  H    0.161280
     8  H    0.150198
     9  N   -0.355128
    10  H    0.283837
    11  H    0.279360
    12  Cl  -0.086346
    13  C   -0.408745
    14  H    0.166871
    15  H    0.171654
    16  H    0.172631
    17  Br  -0.143608
    18  C    0.177455
    19  C   -0.282891
    20  C   -0.108206
    21  C   -0.148131
    22  C   -0.134168
    23  C   -0.208564
    24  H    0.160463
    25  H    0.146745
    26  H    0.146974
    27  H    0.145789
    28  H    0.144171
 Sum of Mulliken charges =  -0.00000

 Dipole moment (field-independent basis, Debye):
    X=              0.2362    Y=             10.6596    Z=              2.3654  Tot=             10.9214
 Quadrupole moment (field-independent basis, Debye-Ang):
   XX=            -99.3269   YY=           -114.2157   ZZ=            -98.9588
   XY=             -1.1342   XZ=             -8.7524   YZ=             11.7651

  Exact polarizability: 281.038   0.402 243.364   1.124  -0.129 224.557
 Approx polarizability: 215.201   5.565 197.152   2.712  -2.849 197.365

 ******    1 imaginary frequencies (negative Signs) ******

                      1                      2                      3
                      A                      A                      A
 Frequencies --   -348.8639                23.1752                56.0916
 Red. masses --      6.1539                 4.8285                 5.3563
 Frc consts  --      0.4413                 0.0015                 0.0099
 IR Inten    --    862.4219                 1.5860                 0.4125

                      4                      5                      6
                      A                      A                      A
 Frequencies --     61.3738                68.6857                84.9279
 Red. masses --      3.9459                 4.2023                 2.4505
 Frc consts  --      0.0088                 0.0117                 0.0104
 IR Inten    --      0.4638                 0.2081                 6.1588

                      7                      8                      9
                      A                      A                      A
 Frequencies --    109.6796               167.3896               168.7540
 Red. masses --      4.5722                12.1399                 2.3267
 Frc consts  --      0.0324                 0.2004                 0.0390
 IR Inten    --      9.5426                 1.5491                 5.3250

                     10                     11                     12
                      A                      A                      A
 Frequencies --    192.7129               207.2588               231.1095
 Red. masses --      5.2537                 2.3163                 4.8348
 Frc consts  --      0.1150                 0.0586                 0.1521
 IR Inten    --      1.1948                 0.8159                 3.5837

                     13                     14                     15
                      A                      A                      A
 Frequencies --    243.6341               280.1745               323.9966
 Red. masses --      3.3289                 3.1632                 1.6114
 Frc consts  --      0.1164                 0.1463                 0.0997
 IR Inten    --     12.9981                13.9725                 2.1946

                     16                     17                     18
                      A                      A                      A
 Frequencies --    347.4599               357.8893               362.6768
 Red. masses --      6.5320                 1.9779                 3.0927
 Frc consts  --      0.4646                 0.1493                 0.2397
 IR Inten    --      7.6962                 4.7879                 0.6492

                     19                     20                     21
                      A                      A                      A
 Frequencies --    393.7401               418.2314               475.8357
 Red. masses --      5.2417                 2.8184                 5.7137
 Frc consts  --      0.4788                 0.2905                 0.7622
 IR Inten    --      9.7026                 0.5434                57.7023

                     22                     23                     24
                      A                      A                      A
 Frequencies --    506.1882               571.2722               634.5108
 Red. masses --      4.9476                 4.3243                 6.4308
 Frc consts  --      0.7469                 0.8315                 1.5254
 IR Inten    --    101.3534                13.4853                 0.3455

                     25                     26                     27
                      A                      A                      A
 Frequencies --    649.7154               657.2402               727.0844
 Red. masses --      2.2695                 2.0921                 1.5890
 Frc consts  --      0.5645                 0.5324                 0.4949
 IR Inten    --     48.5695               112.4801               101.7060

                     28                     29                     30
                      A                      A                      A
 Frequencies --    751.9471               767.8561               801.9671
 Red. masses --      3.7019                 4.4176                 5.0048
 Frc consts  --      1.2333                 1.5346                 1.8965
 IR Inten    --     65.7335                48.3929                95.2724

                     31                     32                     33
                      A                      A                      A
 Frequencies --    834.8075               881.1277               962.9337
 Red. masses --      3.3148                 1.2505                 1.4870
 Frc consts  --      1.3611                 0.5720                 0.8124
 IR Inten    --     77.1503                 0.1876                20.0669

                     34                     35                     36
                      A                      A                      A
 Frequencies --   1005.7977              1013.9674              1024.2873
 Red. masses --      1.5740                 1.3799                 1.4476
 Frc consts  --      0.9382                 0.8359                 0.8949
 IR Inten    --     43.1508                 1.5843               122.8417

                     37                     38                     39
                      A                      A                      A
 Frequencies --   1026.0415              1033.1665              1039.4181
 Red. masses --      5.3911                 1.3121                 1.3342
 Frc consts  --      3.3439                 0.8252                 0.8493
 IR Inten    --      2.5462                 4.4112               104.9333

                     40                     41                     42
                      A                      A                      A
 Frequencies --   1055.8559              1063.7012              1075.8275
 Red. masses --      2.0635                 1.8247                 2.8962
 Frc consts  --      1.3554                 1.2164                 1.9750
 IR Inten    --     71.9278                45.6923                57.0359

                     43                     44                     45
                      A                      A                      A
 Frequencies --   1111.2425              1113.6954              1173.6965
 Red. masses --      1.5952                 1.8853                 4.1491
 Frc consts  --      1.1606                 1.3777                 3.3676
 IR Inten    --      8.0034                67.2369                93.2135

                     46                     47                     48
                      A                      A                      A
 Frequencies --   1184.6086              1206.6268              1221.9228
 Red. masses --      1.1499                 1.1238                 1.3886
 Frc consts  --      0.9507                 0.9641                 1.2216
 IR Inten    --      0.3487                 1.7698                21.5741

                     49                     50                     51
                      A                      A                      A
 Frequencies --   1319.4349              1337.3224              1347.4344
 Red. masses --      4.3580                 6.2102                 1.3112
 Frc consts  --      4.4701                 6.5438                 1.4026
 IR Inten    --     55.2753               398.5744                 1.6644

                     52                     53                     54
                      A                      A                      A
 Frequencies --   1359.7196              1410.4240              1428.0569
 Red. masses --      1.4482                 2.3864                 1.5719
 Frc consts  --      1.5775                 2.7970                 1.8887
 IR Inten    --      5.5931               907.0929               287.2558

                     55                     56                     57
                      A                      A                      A
 Frequencies --   1462.1242              1481.3371              1488.4966
 Red. masses --      1.2209                 1.0726                 1.2050
 Frc consts  --      1.5377                 1.3868                 1.5731
 IR Inten    --     52.7824                21.7952                54.6447

                     58                     59                     60
                      A                      A                      A
 Frequencies --   1490.3200              1496.9400              1511.2039
 Red. masses --      1.8138                 1.0723                 1.0395
 Frc consts  --      2.3735                 1.4157                 1.3987
 IR Inten    --     27.0131                25.4712                24.1107

                     61                     62                     63
                      A                      A                      A
 Frequencies --   1540.7439              1643.6708              1647.8502
 Red. masses --      2.3261                 3.3852                 1.4213
 Frc consts  --      3.2534                 5.3885                 2.2739
 IR Inten    --      6.8750               538.1119                11.2678

                     64                     65                     66
                      A                      A                      A
 Frequencies --   1652.7289              1674.2030              3066.3987
 Red. masses --      5.8498                 5.8512                 1.0355
 Frc consts  --      9.4144                 9.6629                 5.7365
 IR Inten    --    148.8502                 0.1110                47.3387

                     67                     68                     69
                      A                      A                      A
 Frequencies --   3094.8600              3142.8619              3169.2922
 Red. masses --      1.0358                 1.1020                 1.1055
 Frc consts  --      5.8456                 6.4132                 6.5422
 IR Inten    --      5.8180                12.9215                13.4439

                     70                     71                     72
                      A                      A                      A
 Frequencies --   3173.2601              3192.9224              3194.0241
 Red. masses --      1.1023                 1.1031                 1.0867
 Frc consts  --      6.5395                 6.6257                 6.5317
 IR Inten    --      6.3032                 4.0040                 2.2133

                     73                     74                     75
                      A                      A                      A
 Frequencies --   3197.8426              3205.5029              3213.9306
 Red. masses --      1.0883                 1.0916                 1.0953
 Frc consts  --      6.5569                 6.6085                 6.6656
 IR Inten    --      0.6256                 7.6802                33.5273

                     76                     77                     78
                      A                      A                      A
 Frequencies --   3223.5358              3520.9055              3601.8526
 Red. masses --      1.0989                 1.0509                 1.0960
 Frc consts  --      6.7279                 7.6759                 8.3778
 IR Inten    --     18.7879                21.8072                45.1958

 - Thermochemistry -
 -------------------
 Temperature   298.150 Kelvin.  Pressure   1.00000 Atm.
 Atom     1 has atomic number  6 and mass  12.00000

 Molecular mass:   288.98690 amu.
 Principal axes and moments of inertia in atomic units:
                           1         2         3
     Eigenvalues --  3061.750156355.821707674.84735
           X            0.99908  -0.03979  -0.01578
           Y            0.04057   0.99777   0.05293
           Z            0.01364  -0.05353   0.99847
 This molecule is an asymmetric top.
 Rotational symmetry number  1.
 Warning -- assumption of classical behavior for rotation
           may cause significant error
 Rotational temperatures (Kelvin)      0.02829     0.01363     0.01129
 Rotational constants (GHZ):           0.58945     0.28395     0.23515
    1 imaginary frequencies ignored.
 Zero-point vibrational energy     579952.6 (Joules/Mol)
                                  138.61200 (Kcal/Mol)
 Warning -- explicit consideration of  22 degrees of freedom as
           vibrations may cause significant error
 Vibrational temperatures:     33.34    80.70    88.30    98.82   122.19
          (Kelvin)            157.80   240.84   242.80   277.27   298.20
                              332.52   350.54   403.11   466.16   499.92
                              514.92   521.81   566.50   601.74   684.62
                              728.29   821.93   912.92   934.80   945.62
                             1046.11  1081.88  1104.77  1153.85  1201.10
                             1267.75  1385.45  1447.12  1458.87  1473.72
                             1476.24  1486.50  1495.49  1519.14  1530.43
                             1547.88  1598.83  1602.36  1688.69  1704.39
                             1736.07  1758.07  1898.37  1924.11  1938.66
                             1956.33  2029.29  2054.66  2103.67  2131.31
                             2141.61  2144.24  2153.76  2174.29  2216.79
                             2364.88  2370.89  2377.91  2408.80  4411.86
                             4452.81  4521.88  4559.90  4565.61  4593.90
                             4595.49  4600.98  4612.00  4624.13  4637.95
                             5065.80  5182.26

 Zero-point correction=                           0.220892 (Hartree/Particle)
 Thermal correction to Energy=                    0.236469
 Thermal correction to Enthalpy=                  0.237413
 Thermal correction to Gibbs Free Energy=         0.175915
 Sum of electronic and zero-point Energies=          -3591.157823
 Sum of electronic and thermal Energies=             -3591.142246
 Sum of electronic and thermal Enthalpies=           -3591.141302
 Sum of electronic and thermal Free Energies=        -3591.202800

                     E (Thermal)             CV                S
                      KCal/Mol        Cal/Mol-Kelvin    Cal/Mol-Kelvin
 Total                  148.386             56.392            129.434
 Electronic               0.000              0.000              0.000
 Translational            0.889              2.981             42.881
 Rotational               0.889              2.981             33.368
 Vibrational            146.609             50.431             53.185
 Vibration     1          0.593              1.985              6.342
 Vibration     2          0.596              1.975              4.590
 Vibration     3          0.597              1.973              4.413
 Vibration     4          0.598              1.969              4.191
 Vibration     5          0.601              1.960              3.774
 Vibration     6          0.606              1.941              3.275
 Vibration     7          0.624              1.883              2.465
 Vibration     8          0.625              1.881              2.449
 Vibration     9          0.635              1.850              2.202
 Vibration    10          0.641              1.830              2.068
 Vibration    11          0.653              1.793              1.870
 Vibration    12          0.659              1.773              1.776
 Vibration    13          0.680              1.710              1.533
 Vibration    14          0.709              1.627              1.290
 Vibration    15          0.725              1.580              1.178
 Vibration    16          0.733              1.559              1.131
 Vibration    17          0.737              1.549              1.111
 Vibration    18          0.761              1.484              0.986
 Vibration    19          0.781              1.431              0.898
 Vibration    20          0.832              1.304              0.721
 Vibration    21          0.861              1.236              0.643
 Vibration    22          0.927              1.093              0.502

 Optimization completed.
    -- Stationary point found.
 Normal termination of Gaussian 16 at Sun Feb 28 21:27:17 2021.
