 Gaussian 16, Revision A.03,
 Gaussian 16:  ES64L-G16RevA.03 25-Dec-2016

 ----------------------------------------------------------------------
 # wB97XD def2tzvp, opt=(ts, noeigen, calcfc, maxcycles=70, maxstep=1),
  freq=noraman, scrf=(iefpcm, solvent=water)
 ----------------------------------------------------------------------

 ------------------------
 0_iteration/TS-990-0.out
 ------------------------
 Symbolic Z-matrix:
 Charge =  0 Multiplicity = 1

 SCF Done:  E(RwB97XD) =  -3914.60059928     A.U. after   15 cycles
 SCF Done:  E(RwB97XD) =  -3914.60066752     A.U. after   10 cycles
 SCF Done:  E(RwB97XD) =  -3914.60073706     A.U. after   10 cycles
 SCF Done:  E(RwB97XD) =  -3914.60080508     A.U. after   10 cycles
 SCF Done:  E(RwB97XD) =  -3914.60087078     A.U. after   10 cycles
 SCF Done:  E(RwB97XD) =  -3914.60093425     A.U. after   10 cycles
 SCF Done:  E(RwB97XD) =  -3914.60099665     A.U. after   10 cycles
 SCF Done:  E(RwB97XD) =  -3914.60105827     A.U. after   10 cycles
 SCF Done:  E(RwB97XD) =  -3914.60111961     A.U. after   10 cycles
 SCF Done:  E(RwB97XD) =  -3914.60118136     A.U. after   10 cycles
 SCF Done:  E(RwB97XD) =  -3914.60300087     A.U. after    9 cycles
 SCF Done:  E(RwB97XD) =  -3914.60305140     A.U. after    9 cycles
 SCF Done:  E(RwB97XD) =  -3914.60309582     A.U. after    9 cycles
 SCF Done:  E(RwB97XD) =  -3914.60313390     A.U. after    9 cycles
 SCF Done:  E(RwB97XD) =  -3914.60316507     A.U. after    9 cycles
 SCF Done:  E(RwB97XD) =  -3914.60318881     A.U. after    9 cycles
 SCF Done:  E(RwB97XD) =  -3914.60320470     A.U. after    9 cycles
 SCF Done:  E(RwB97XD) =  -3914.60321227     A.U. after    9 cycles
 SCF Done:  E(RwB97XD) =  -3914.60321290     A.U. after    8 cycles
 Optimization completed.
    -- Stationary point found.
 Normal termination of Gaussian 16 at Sun Feb 28 12:40:43 2021.

 ---------------------------------------------------------------------
 #N Geom=AllCheck Guess=TCheck SCRF=Check GenChk RwB97XD/def2TZVP Freq
 ---------------------------------------------------------------------

 Structure from the checkpoint file:  "/beegfs/scratch/user/q/tla25/Gau-49471.chk"
 ------------------------
 0_iteration/TS-990-0.out
 ------------------------
 Charge =  0 Multiplicity = 1

                         Standard orientation:
 ---------------------------------------------------------------------
 Center     Atomic      Atomic             Coordinates (Angstroms)
 Number     Number       Type             X           Y           Z
 ---------------------------------------------------------------------
      1          6           0       -0.126802    0.088484   -0.186934
      2          6           0       -1.189836   -0.806360    0.307688
      3          8           0       -0.910415   -1.751464    1.061647
      4          6           0        1.141845   -0.426257   -0.382061
      5          6           0        2.027926   -0.105668    2.271138
      6          1           0        2.255380   -0.564184    3.233746
      7          1           0        2.829611    0.578202    2.000251
      8          1           0        1.094349    0.448610    2.355475
      9          7           0        1.872023   -1.116948    1.234267
     10          1           0        2.721190   -1.643907    1.066128
     11          1           0        1.095453   -1.743594    1.447934
     12         17           0        2.424497    0.639476   -0.902798
     13         17           0        1.225456   -1.977478   -1.273492
     14         35           0       -0.371733    1.958279    0.113394
     15          7           0       -2.469008   -0.562082   -0.050827
     16          6           0       -3.538408   -1.296422    0.592921
     17          6           0       -2.854481    0.225863   -1.203392
     18          1           0       -3.233393   -1.592966    1.592485
     19          1           0       -4.418122   -0.655191    0.657855
     20          1           0       -3.803220   -2.194327    0.026493
     21          1           0       -1.980525    0.478933   -1.796784
     22          1           0       -3.534133   -0.363145   -1.823431
     23          1           0       -3.364390    1.144907   -0.905436
 ---------------------------------------------------------------------

 SCF Done:  E(RwB97XD) =  -3914.60321290     A.U. after    1 cycles

 The electronic state is 1-A.
 Alpha  occ. eigenvalues -- -483.12931-101.71596-101.70677 -62.67742 -56.46867
 Alpha  occ. eigenvalues --  -56.46504 -56.46497 -19.21637 -14.48604 -14.46630
 Alpha  occ. eigenvalues --  -10.45349 -10.39289 -10.31764 -10.31442 -10.31058
 Alpha  occ. eigenvalues --  -10.30771  -9.60177  -9.59264  -8.81844  -7.34858
 Alpha  occ. eigenvalues --   -7.33936  -7.33934  -7.33904  -7.33019  -7.33008
 Alpha  occ. eigenvalues --   -6.64013  -6.62853  -6.62828  -2.74398  -2.74062
 Alpha  occ. eigenvalues --   -2.74042  -2.73104  -2.73104  -1.14431  -1.05464
 Alpha  occ. eigenvalues --   -1.03959  -1.00530  -0.93609  -0.91395  -0.82791
 Alpha  occ. eigenvalues --   -0.81673  -0.79748  -0.78772  -0.69021  -0.64204
 Alpha  occ. eigenvalues --   -0.62290  -0.59847  -0.58305  -0.57288  -0.56678
 Alpha  occ. eigenvalues --   -0.55253  -0.54411  -0.51942  -0.48959  -0.48852
 Alpha  occ. eigenvalues --   -0.48738  -0.48177  -0.47524  -0.47067  -0.45801
 Alpha  occ. eigenvalues --   -0.43176  -0.41917  -0.40130  -0.39798  -0.39015
 Alpha  occ. eigenvalues --   -0.37424  -0.35182  -0.32575  -0.27545
 Alpha virt. eigenvalues --    0.03168   0.05719   0.06508   0.10898   0.11686
 Alpha virt. eigenvalues --    0.12525   0.14978   0.15856   0.16003   0.17191
 Alpha virt. eigenvalues --    0.17640   0.18100   0.18910   0.19849   0.20238

 Mulliken charges:
               1
     1  C   -0.386300
     2  C    0.348894
     3  O   -0.549689
     4  C    0.216047
     5  C   -0.301358
     6  H    0.159102
     7  H    0.153441
     8  H    0.156780
     9  N   -0.307228
    10  H    0.284850
    11  H    0.281877
    12  Cl  -0.045794
    13  Cl  -0.084761
    14  Br  -0.115084
    15  N   -0.100662
    16  C   -0.289489
    17  C   -0.303223
    18  H    0.143274
    19  H    0.142673
    20  H    0.140790
    21  H    0.164962
    22  H    0.143745
    23  H    0.147151
 Sum of Mulliken charges =  -0.00000

 Dipole moment (field-independent basis, Debye):
    X=              1.0398    Y=             -0.5921    Z=              2.0862  Tot=              2.4050
 Quadrupole moment (field-independent basis, Debye-Ang):
   XX=            -78.1127   YY=           -103.1104   ZZ=            -94.6700
   XY=             -4.2249   XZ=             11.2963   YZ=             -0.6358

  Exact polarizability: 224.305  -9.033 197.906  11.719  -3.546 167.821
 Approx polarizability: 172.576  -6.609 169.686   7.258  -4.368 144.964

 ******    1 imaginary frequencies (negative Signs) ******

                      1                      2                      3
                      A                      A                      A
 Frequencies --   -383.2318                51.1713                70.2131
 Red. masses --      6.1027                 4.3539                 4.8813
 Frc consts  --      0.5281                 0.0067                 0.0142
 IR Inten    --    829.9162                 3.8052                 4.4303

                      4                      5                      6
                      A                      A                      A
 Frequencies --     82.8413                93.5090               119.0691
 Red. masses --      2.8198                 3.2866                 1.3765
 Frc consts  --      0.0114                 0.0169                 0.0115
 IR Inten    --      2.6143                 1.1350                 0.2412

                      7                      8                      9
                      A                      A                      A
 Frequencies --    142.0862               155.7903               158.9734
 Red. masses --      3.1609                10.8406                 1.9098
 Frc consts  --      0.0376                 0.1550                 0.0284
 IR Inten    --     27.3388                 1.3000                 3.0983

                     10                     11                     12
                      A                      A                      A
 Frequencies --    168.4064               178.5092               188.8047
 Red. masses --      1.5191                 3.8037                 1.9977
 Frc consts  --      0.0254                 0.0714                 0.0420
 IR Inten    --      2.5968                 3.5752                 1.5949

                     13                     14                     15
                      A                      A                      A
 Frequencies --    230.3980               244.4946               260.8715
 Red. masses --      3.2789                 3.4275                 6.1925
 Frc consts  --      0.1026                 0.1207                 0.2483
 IR Inten    --      2.5701                 3.0646                23.9391

                     16                     17                     18
                      A                      A                      A
 Frequencies --    262.3056               327.5606               336.6835
 Red. masses --      3.1752                 5.8044                 4.4402
 Frc consts  --      0.1287                 0.3669                 0.2965
 IR Inten    --     16.4444                32.5939                18.0417

                     19                     20                     21
                      A                      A                      A
 Frequencies --    379.1624               406.9816               485.7562
 Red. masses --      9.9944                 3.0997                 4.2990
 Frc consts  --      0.8466                 0.3025                 0.5977
 IR Inten    --     10.6230                 9.7609                72.4802

                     22                     23                     24
                      A                      A                      A
 Frequencies --    515.4862               653.7468               672.5988
 Red. masses --      9.0866                 3.3102                 3.2154
 Frc consts  --      1.4226                 0.8335                 0.8570
 IR Inten    --    123.7407                 8.2924                67.4755

                     25                     26                     27
                      A                      A                      A
 Frequencies --    768.6272               778.3921               811.1369
 Red. masses --     10.2419                 2.5875                 5.7103
 Frc consts  --      3.5650                 0.9237                 2.2136
 IR Inten    --    121.6281                97.5338               124.9160

                     28                     29                     30
                      A                      A                      A
 Frequencies --    948.9175              1009.3098              1051.9051
 Red. masses --      4.6125                 1.1103                 2.4697
 Frc consts  --      2.4470                 0.6664                 1.6101
 IR Inten    --     43.2044                63.4015                67.7725

                     31                     32                     33
                      A                      A                      A
 Frequencies --   1080.8920              1089.2771              1101.2929
 Red. masses --      2.2603                 1.3779                 1.7789
 Frc consts  --      1.5559                 0.9633                 1.2712
 IR Inten    --      4.3617                19.5996               112.7195

                     34                     35                     36
                      A                      A                      A
 Frequencies --   1132.0592              1171.7917              1211.6704
 Red. masses --      1.2314                 1.4080                 2.7987
 Frc consts  --      0.9298                 1.1391                 2.4209
 IR Inten    --      0.6404                 4.3416               237.5711

                     37                     38                     39
                      A                      A                      A
 Frequencies --   1225.3108              1316.0606              1358.2278
 Red. masses --      1.4134                 5.2735                 1.3343
 Frc consts  --      1.2502                 5.3815                 1.4503
 IR Inten    --     47.5014                56.8525                36.4520

                     40                     41                     42
                      A                      A                      A
 Frequencies --   1398.8181              1442.1283              1448.2962
 Red. masses --      5.4889                 1.8346                 1.1649
 Frc consts  --      6.3279                 2.2480                 1.4397
 IR Inten    --   1030.7042               101.1619                10.6674

                     43                     44                     45
                      A                      A                      A
 Frequencies --   1458.6809              1475.0111              1483.3281
 Red. masses --      1.2337                 1.2311                 1.0676
 Frc consts  --      1.5466                 1.5780                 1.3840
 IR Inten    --     17.0102                35.1276                 1.8312

                     46                     47                     48
                      A                      A                      A
 Frequencies --   1486.0761              1489.0913              1501.3966
 Red. masses --      1.0667                 1.0408                 1.0513
 Frc consts  --      1.3880                 1.3598                 1.3962
 IR Inten    --     36.1478                25.6923                20.8927

                     49                     50                     51
                      A                      A                      A
 Frequencies --   1501.7294              1537.6737              1617.6338
 Red. masses --      1.0339                 1.7585                 1.6115
 Frc consts  --      1.3737                 2.4498                 2.4845
 IR Inten    --      6.3545               201.7618               508.9043

                     52                     53                     54
                      A                      A                      A
 Frequencies --   1650.9276              3039.7121              3045.8798
 Red. masses --      2.2258                 1.0423                 1.0384
 Frc consts  --      3.5743                 5.6741                 5.6758
 IR Inten    --    321.3127                62.6231               100.3361

                     55                     56                     57
                      A                      A                      A
 Frequencies --   3070.8595              3103.4198              3113.5186
 Red. masses --      1.0338                 1.1034                 1.0974
 Frc consts  --      5.7438                 6.2611                 6.2679
 IR Inten    --     34.0298                56.6758                20.4755

                     58                     59                     60
                      A                      A                      A
 Frequencies --   3148.7221              3170.9940              3175.3412
 Red. masses --      1.1038                 1.1058                 1.0997
 Frc consts  --      6.4476                 6.5513                 6.5328
 IR Inten    --     11.6746                12.1186                 9.9262

                     61                     62                     63
                      A                      A                      A
 Frequencies --   3176.5814              3436.2880              3585.0709
 Red. masses --      1.1009                 1.0592                 1.0899
 Frc consts  --      6.5451                 7.3691                 8.2531
 IR Inten    --      9.0460               120.0470               119.8395

 - Thermochemistry -
 -------------------
 Temperature   298.150 Kelvin.  Pressure   1.00000 Atm.
 Atom     1 has atomic number  6 and mass  12.00000

 Molecular mass:   275.94318 amu.
 Principal axes and moments of inertia in atomic units:
                           1         2         3
     Eigenvalues --  2905.829353888.046175049.77392
           X            0.99711   0.06013   0.04641
           Y           -0.05846   0.99762  -0.03661
           Z           -0.04850   0.03379   0.99825
 This molecule is an asymmetric top.
 Rotational symmetry number  1.
 Warning -- assumption of classical behavior for rotation
           may cause significant error
 Rotational temperatures (Kelvin)      0.02981     0.02228     0.01715
 Rotational constants (GHZ):           0.62108     0.46418     0.35739
    1 imaginary frequencies ignored.
 Zero-point vibrational energy     459350.9 (Joules/Mol)
                                  109.78749 (Kcal/Mol)
 Warning -- explicit consideration of  21 degrees of freedom as
           vibrations may cause significant error
 Vibrational temperatures:     73.62   101.02   119.19   134.54   171.31
          (Kelvin)            204.43   224.15   228.73   242.30   256.83
                              271.65   331.49   351.77   375.34   377.40
                              471.29   484.41   545.53   585.56   698.89
                              741.67   940.60   967.72  1105.88  1119.93
                             1167.05  1365.28  1452.17  1513.46  1555.16
                             1567.23  1584.51  1628.78  1685.95  1743.32
                             1762.95  1893.52  1954.19  2012.59  2074.90
                             2083.78  2098.72  2122.21  2134.18  2138.13
                             2142.47  2160.17  2160.65  2212.37  2327.41
                             2375.32  4373.47  4382.34  4418.28  4465.13
                             4479.66  4530.31  4562.35  4568.61  4570.39
                             4944.05  5158.12

 Zero-point correction=                           0.174958 (Hartree/Particle)
 Thermal correction to Energy=                    0.189978
 Thermal correction to Enthalpy=                  0.190922
 Thermal correction to Gibbs Free Energy=         0.131749
 Sum of electronic and zero-point Energies=          -3914.428255
 Sum of electronic and thermal Energies=             -3914.413235
 Sum of electronic and thermal Enthalpies=           -3914.412291
 Sum of electronic and thermal Free Energies=        -3914.471464

                     E (Thermal)             CV                S
                      KCal/Mol        Cal/Mol-Kelvin    Cal/Mol-Kelvin
 Total                  119.213             50.748            124.539
 Electronic               0.000              0.000              0.000
 Translational            0.889              2.981             42.744
 Rotational               0.889              2.981             32.412
 Vibrational            117.435             44.787             49.383
 Vibration     1          0.595              1.977              4.772
 Vibration     2          0.598              1.968              4.147
 Vibration     3          0.600              1.961              3.822
 Vibration     4          0.603              1.954              3.585
 Vibration     5          0.609              1.933              3.115
 Vibration     6          0.616              1.911              2.776
 Vibration     7          0.620              1.896              2.600
 Vibration     8          0.621              1.893              2.562
 Vibration     9          0.625              1.881              2.453
 Vibration    10          0.629              1.869              2.344
 Vibration    11          0.633              1.855              2.240
 Vibration    12          0.652              1.795              1.876
 Vibration    13          0.660              1.772              1.770
 Vibration    14          0.669              1.744              1.656
 Vibration    15          0.670              1.742              1.646
 Vibration    16          0.711              1.620              1.272
 Vibration    17          0.717              1.602              1.228
 Vibration    18          0.749              1.515              1.043
 Vibration    19          0.772              1.455              0.937
 Vibration    20          0.842              1.282              0.695
 Vibration    21          0.871              1.216              0.621

 Optimization completed.
    -- Stationary point found.
 Normal termination of Gaussian 16 at Sun Feb 28 13:12:26 2021.
