 Gaussian 16, Revision A.03,
 Gaussian 16:  ES64L-G16RevA.03 25-Dec-2016

 ----------------------------------------------------------------------
 # wB97XD def2tzvp, opt=(ts, noeigen, calcfc, maxcycles=70, maxstep=8),
  freq=noraman, scrf=(iefpcm, solvent=water)
 ----------------------------------------------------------------------

 ------------------------
 1_iteration/TS-986-1.out
 ------------------------
 Symbolic Z-matrix:
 Charge =  0 Multiplicity = 1

 SCF Done:  E(RwB97XD) =  -3819.92117613     A.U. after   15 cycles
 SCF Done:  E(RwB97XD) =  -3819.92194192     A.U. after   14 cycles
 SCF Done:  E(RwB97XD) =  -3819.92230870     A.U. after   12 cycles
 SCF Done:  E(RwB97XD) =  -3819.92228312     A.U. after   12 cycles
 SCF Done:  E(RwB97XD) =  -3819.92240278     A.U. after   12 cycles
 SCF Done:  E(RwB97XD) =  -3819.92240817     A.U. after   11 cycles
 SCF Done:  E(RwB97XD) =  -3819.92240910     A.U. after   10 cycles
 SCF Done:  E(RwB97XD) =  -3819.92240916     A.U. after    9 cycles
 SCF Done:  E(RwB97XD) =  -3819.92240920     A.U. after    7 cycles
 SCF Done:  E(RwB97XD) =  -3819.92240919     A.U. after    8 cycles
 SCF Done:  E(RwB97XD) =  -3819.92240917     A.U. after    8 cycles
 Optimization completed.
    -- Stationary point found.
 Normal termination of Gaussian 16 at Sun Feb 28 13:55:55 2021.

 ---------------------------------------------------------------------
 #N Geom=AllCheck Guess=TCheck SCRF=Check GenChk RwB97XD/def2TZVP Freq
 ---------------------------------------------------------------------

 Structure from the checkpoint file:  "/beegfs/scratch/user/q/tla25/Gau-108315.chk"
 ------------------------
 1_iteration/TS-986-1.out
 ------------------------
 Charge =  0 Multiplicity = 1

                         Standard orientation:
 ---------------------------------------------------------------------
 Center     Atomic      Atomic             Coordinates (Angstroms)
 Number     Number       Type             X           Y           Z
 ---------------------------------------------------------------------
      1          6           0        0.340447    0.419333   -0.185396
      2          6           0        0.599674    1.832900    0.004889
      3          8           0        1.744764    2.274165   -0.005540
      4          6           0       -0.894050   -0.226246   -0.262714
      5          6           0       -0.685507   -0.821891    2.473117
      6          1           0       -1.118046   -0.846286    3.472494
      7          1           0       -0.262118   -1.795439    2.235757
      8          1           0        0.101820   -0.069522    2.441303
      9          7           0       -1.693063   -0.480452    1.475814
     10          1           0       -2.403769   -1.198696    1.384019
     11          1           0       -2.159746    0.390129    1.705582
     12         17           0       -0.925812   -1.907403   -0.775573
     13         17           0       -2.263083    0.617001   -1.000439
     14         35           0        1.923404   -0.649969   -0.169692
     15          6           0       -0.525868    2.817640    0.251897
     16          1           0       -0.086609    3.693508    0.724461
     17          1           0       -0.973703    3.121750   -0.694595
     18          1           0       -1.320604    2.429761    0.885276
 ---------------------------------------------------------------------

 SCF Done:  E(RwB97XD) =  -3819.92240917     A.U. after    1 cycles

 The electronic state is 1-A.
 Alpha  occ. eigenvalues -- -483.12496-101.71970-101.71911 -62.67329 -56.46453
 Alpha  occ. eigenvalues --  -56.46090 -56.46077 -19.21981 -14.50253 -10.46792
 Alpha  occ. eigenvalues --  -10.37482 -10.32591 -10.32401 -10.28158  -9.60558
 Alpha  occ. eigenvalues --   -9.60509  -8.81445  -7.35250  -7.35196  -7.34317
 Alpha  occ. eigenvalues --   -7.34269  -7.34261  -7.34231  -6.63619  -6.62457
 Alpha  occ. eigenvalues --   -6.62421  -2.74004  -2.73669  -2.73641  -2.72701
 Alpha  occ. eigenvalues --   -2.72700  -1.13215  -1.06672  -1.01763  -0.94549
 Alpha  occ. eigenvalues --   -0.91412  -0.84944  -0.80741  -0.79856  -0.71333
 Alpha  occ. eigenvalues --   -0.64836  -0.61850  -0.59292  -0.57595  -0.56512
 Alpha  occ. eigenvalues --   -0.56040  -0.52765  -0.51599  -0.49940  -0.49113
 Alpha  occ. eigenvalues --   -0.48600  -0.45868  -0.45006  -0.43698  -0.42455
 Alpha  occ. eigenvalues --   -0.40604  -0.39869  -0.39230  -0.36490  -0.33306
 Alpha  occ. eigenvalues --   -0.29049
 Alpha virt. eigenvalues --    0.01734   0.04596   0.05270   0.09837   0.12294
 Alpha virt. eigenvalues --    0.13885   0.14347   0.14706   0.16294   0.18401
 Alpha virt. eigenvalues --    0.18862   0.19619   0.20902   0.21784   0.22845

 Mulliken charges:
               1
     1  C   -0.222591
     2  C    0.231307
     3  O   -0.462875
     4  C    0.141792
     5  C   -0.297311
     6  H    0.169588
     7  H    0.164385
     8  H    0.162629
     9  N   -0.321754
    10  H    0.298650
    11  H    0.287949
    12  Cl  -0.032769
    13  Cl  -0.039513
    14  Br  -0.117716
    15  C   -0.370909
    16  H    0.135689
    17  H    0.156717
    18  H    0.116731
 Sum of Mulliken charges =  -0.00000

 Dipole moment (field-independent basis, Debye):
    X=             -9.1902    Y=             -2.8201    Z=              5.5947  Tot=             11.1226
 Quadrupole moment (field-independent basis, Debye-Ang):
   XX=            -87.5249   YY=            -88.3069   ZZ=            -76.4507
   XY=             -7.6529   XZ=             -7.6138   YZ=             -2.4802

  Exact polarizability: 192.922  10.972 179.530  -4.340  -4.209 137.559
 Approx polarizability: 160.059   6.627 147.740  -2.237  -2.237 119.786

 ******    1 imaginary frequencies (negative Signs) ******

                      1                      2                      3
                      A                      A                      A
 Frequencies --   -355.3481                49.1359                66.9865
 Red. masses --      5.8881                 9.7578                 4.1333
 Frc consts  --      0.4381                 0.0139                 0.0109
 IR Inten    --    891.4092                 3.7735                 6.2895

                      4                      5                      6
                      A                      A                      A
 Frequencies --     82.1968               138.9512               180.2819
 Red. masses --      2.9968                 3.9792                12.1068
 Frc consts  --      0.0119                 0.0453                 0.2318
 IR Inten    --      2.4592                 4.3598                 0.1841

                      7                      8                      9
                      A                      A                      A
 Frequencies --    190.7241               197.5433               213.4945
 Red. masses --      1.5589                 3.4671                 2.0506
 Frc consts  --      0.0334                 0.0797                 0.0551
 IR Inten    --      1.0674                 7.4235                 0.2832

                     10                     11                     12
                      A                      A                      A
 Frequencies --    241.0792               264.2443               272.2402
 Red. masses --      1.7365                 3.7888                 6.1711
 Frc consts  --      0.0595                 0.1559                 0.2695
 IR Inten    --      2.0584                12.6095                 2.1559

                     13                     14                     15
                      A                      A                      A
 Frequencies --    295.4142               331.7246               372.2626
 Red. masses --      4.3022                 6.2479                 4.2616
 Frc consts  --      0.2212                 0.4051                 0.3480
 IR Inten    --      5.4949                28.0623                 6.8622

                     16                     17                     18
                      A                      A                      A
 Frequencies --    433.6881               514.5340               591.3358
 Red. masses --      9.1146                 6.5322                 3.7170
 Frc consts  --      1.0100                 1.0189                 0.7658
 IR Inten    --      1.4686               134.2385                47.9064

                     19                     20                     21
                      A                      A                      A
 Frequencies --    632.3614               674.0484               762.0191
 Red. masses --      3.0453                 1.4327                 8.8007
 Frc consts  --      0.7175                 0.3835                 3.0109
 IR Inten    --     43.7621                12.9829               217.7635

                     22                     23                     24
                      A                      A                      A
 Frequencies --    854.2994               919.8444              1009.0833
 Red. masses --      4.5187                 4.8192                 1.0869
 Frc consts  --      1.9430                 2.4025                 0.6521
 IR Inten    --    137.1565                13.3581                 6.6905

                     25                     26                     27
                      A                      A                      A
 Frequencies --   1029.8096              1042.9940              1054.2467
 Red. masses --      1.5006                 1.7927                 1.2784
 Frc consts  --      0.9376                 1.1490                 0.8371
 IR Inten    --    113.7059                 8.7195                90.3128

                     28                     29                     30
                      A                      A                      A
 Frequencies --   1080.7548              1234.0128              1288.4707
 Red. masses --      4.8398                 1.3989                 4.6692
 Frc consts  --      3.3307                 1.2551                 4.5671
 IR Inten    --     58.8654                25.2028               323.1777

                     31                     32                     33
                      A                      A                      A
 Frequencies --   1341.3956              1365.7343              1393.5422
 Red. masses --      1.3493                 7.4848                 1.2833
 Frc consts  --      1.4305                 8.2255                 1.4683
 IR Inten    --     18.7848              1262.3294                70.2925

                     34                     35                     36
                      A                      A                      A
 Frequencies --   1459.9328              1463.5153              1492.3983
 Red. masses --      1.0716                 1.1947                 1.0412
 Frc consts  --      1.3457                 1.5077                 1.3664
 IR Inten    --      7.2410                 8.8555                27.1356

                     37                     38                     39
                      A                      A                      A
 Frequencies --   1498.8497              1503.4688              1644.2196
 Red. masses --      1.0615                 1.0326                 1.0900
 Frc consts  --      1.4050                 1.3752                 1.7361
 IR Inten    --     14.9700                24.4028                79.7958

                     40                     41                     42
                      A                      A                      A
 Frequencies --   1672.2291              3074.4214              3079.8908
 Red. masses --     10.4672                 1.0326                 1.0367
 Frc consts  --     17.2454                 5.7508                 5.7939
 IR Inten    --    582.5348                18.3413                 8.1946

                     43                     44                     45
                      A                      A                      A
 Frequencies --   3155.2436              3157.3407              3173.1954
 Red. masses --      1.1052                 1.0997                 1.1062
 Frc consts  --      6.4827                 6.4588                 6.5628
 IR Inten    --      7.7156                11.4272                 8.0014

                     46                     47                     48
                      A                      A                      A
 Frequencies --   3176.1074              3517.8900              3601.0941
 Red. masses --      1.1033                 1.0507                 1.0967
 Frc consts  --      6.5575                 7.6613                 8.3796
 IR Inten    --     27.7543                76.8377                64.6492

 - Thermochemistry -
 -------------------
 Temperature   298.150 Kelvin.  Pressure   1.00000 Atm.
 Atom     1 has atomic number  6 and mass  12.00000

 Molecular mass:   246.91663 amu.
 Principal axes and moments of inertia in atomic units:
                           1         2         3
     Eigenvalues --  2261.185742927.772173813.72584
           X            0.99898   0.03332  -0.03041
           Y           -0.03414   0.99906  -0.02675
           Z            0.02949   0.02776   0.99918
 This molecule is an asymmetric top.
 Rotational symmetry number  1.
 Warning -- assumption of classical behavior for rotation
           may cause significant error
 Rotational temperatures (Kelvin)      0.03830     0.02958     0.02271
 Rotational constants (GHZ):           0.79814     0.61642     0.47322
    1 imaginary frequencies ignored.
 Zero-point vibrational energy     339669.2 (Joules/Mol)
                                   81.18288 (Kcal/Mol)
 Warning -- explicit consideration of  17 degrees of freedom as
           vibrations may cause significant error
 Vibrational temperatures:     70.70    96.38   118.26   199.92   259.39
          (Kelvin)            274.41   284.22   307.17   346.86   380.19
                              391.69   425.04   477.28   535.60   623.98
                              740.30   850.80   909.83   969.81  1096.38
                             1229.15  1323.45  1451.85  1481.67  1500.64
                             1516.83  1554.97  1775.47  1853.82  1929.97
                             1964.99  2005.00  2100.52  2105.67  2147.23
                             2156.51  2163.16  2365.67  2405.96  4423.41
                             4431.28  4539.69  4542.71  4565.52  4569.71
                             5061.46  5181.17

 Zero-point correction=                           0.129373 (Hartree/Particle)
 Thermal correction to Energy=                    0.141480
 Thermal correction to Enthalpy=                  0.142425
 Thermal correction to Gibbs Free Energy=         0.089658
 Sum of electronic and zero-point Energies=          -3819.793036
 Sum of electronic and thermal Energies=             -3819.780929
 Sum of electronic and thermal Enthalpies=           -3819.779985
 Sum of electronic and thermal Free Energies=        -3819.832751

                     E (Thermal)             CV                S
                      KCal/Mol        Cal/Mol-Kelvin    Cal/Mol-Kelvin
 Total                   88.780             41.336            111.056
 Electronic               0.000              0.000              0.000
 Translational            0.889              2.981             42.412
 Rotational               0.889              2.981             31.602
 Vibrational             87.003             35.374             37.042
 Vibration     1          0.595              1.978              4.852
 Vibration     2          0.598              1.970              4.240
 Vibration     3          0.600              1.961              3.838
 Vibration     4          0.615              1.914              2.818
 Vibration     5          0.629              1.866              2.325
 Vibration     6          0.634              1.853              2.221
 Vibration     7          0.637              1.843              2.156
 Vibration     8          0.644              1.820              2.014
 Vibration     9          0.658              1.777              1.795
 Vibration    10          0.671              1.738              1.634
 Vibration    11          0.675              1.724              1.582
 Vibration    12          0.690              1.682              1.443
 Vibration    13          0.714              1.612              1.252
 Vibration    14          0.744              1.529              1.070
 Vibration    15          0.794              1.397              0.847
 Vibration    16          0.870              1.218              0.623
 Vibration    17          0.949              1.050              0.465

 Optimization completed.
    -- Stationary point found.
 Normal termination of Gaussian 16 at Sun Feb 28 14:09:49 2021.
