 Gaussian 16, Revision A.03,
 Gaussian 16:  ES64L-G16RevA.03 25-Dec-2016

 ----------------------------------------------------------------------
 # wB97XD def2tzvp, opt=(ts, noeigen, calcfc, maxcycles=70, maxstep=3),
  freq=noraman, scrf=(iefpcm, solvent=water)
 ----------------------------------------------------------------------

 ------------------------
 3_iteration/TS-928-3.out
 ------------------------
 Symbolic Z-matrix:
 Charge =  0 Multiplicity = 1

 SCF Done:  E(RwB97XD) =  -3783.10908085     A.U. after   15 cycles
 Optimization completed.
    -- Stationary point found.
 Normal termination of Gaussian 16 at Mon Mar  1 04:28:11 2021.

 ---------------------------------------------------------------------
 #N Geom=AllCheck Guess=TCheck SCRF=Check GenChk RwB97XD/def2TZVP Freq
 ---------------------------------------------------------------------

 Structure from the checkpoint file:  "/beegfs/scratch/user/q/tla25/Gau-62548.chk"
 ------------------------
 3_iteration/TS-928-3.out
 ------------------------
 Charge =  0 Multiplicity = 1

                         Standard orientation:
 ---------------------------------------------------------------------
 Center     Atomic      Atomic             Coordinates (Angstroms)
 Number     Number       Type             X           Y           Z
 ---------------------------------------------------------------------
      1          6           0        0.316861    0.084720    0.017030
      2          6           0       -0.324219   -1.184370    0.316340
      3          8           0        0.285181   -2.141350    0.797510
      4          6           0        1.695781    0.116530   -0.067050
      5          6           0        1.898741    0.392260    2.835740
      6          1           0        0.824351    0.487250    2.673350
      7          1           0        2.061831   -0.039880    3.824700
      8          1           0        2.348011    1.383260    2.801060
      9          7           0        2.450711   -0.431490    1.778720
     10          1           0        2.079411   -1.375570    1.793490
     11          1           0        3.462301   -0.449350    1.766650
     12         17           0        2.506701    1.644910   -0.243670
     13         35           0        2.660911   -1.262020   -1.031900
     14          6           0       -0.502199    1.329790   -0.012090
     15          6           0       -0.542129    2.138390   -1.147820
     16          6           0       -1.346369    3.265320   -1.193710
     17          6           0       -2.138149    3.602570   -0.104150
     18          6           0       -2.115509    2.803930    1.029360
     19          6           0       -1.302179    1.681470    1.073370
     20          1           0        0.053981    1.869320   -2.011040
     21          1           0       -1.363309    3.876540   -2.087390
     22          1           0       -2.771389    4.479910   -0.140920
     23          1           0       -2.730919    3.054680    1.884240
     24          1           0       -1.300219    1.062020    1.962120
     25          6           0       -1.794419   -1.335640    0.060990
     26          6           0       -2.576809   -2.003120    0.997630
     27          6           0       -3.931629   -2.189260    0.773190
     28          6           0       -4.509309   -1.731650   -0.403380
     29          6           0       -3.728919   -1.084320   -1.351630
     30          6           0       -2.379059   -0.877600   -1.115640
     31          1           0       -2.117139   -2.366750    1.907940
     32          1           0       -4.537489   -2.694150    1.514860
     33          1           0       -5.566529   -1.881520   -0.582390
     34          1           0       -4.173519   -0.736500   -2.275360
     35          1           0       -1.774449   -0.364960   -1.852650
 ---------------------------------------------------------------------

 SCF Done:  E(RwB97XD) =  -3783.10908085     A.U. after    1 cycles

 The electronic state is 1-A.
 Alpha  occ. eigenvalues -- -483.13864-101.71661 -62.68700 -56.47837 -56.47455
 Alpha  occ. eigenvalues --  -56.47442 -19.23107 -14.46820 -10.44312 -10.37487
 Alpha  occ. eigenvalues --  -10.31303 -10.30569 -10.30014 -10.29554 -10.29465
 Alpha  occ. eigenvalues --  -10.29451 -10.29282 -10.29269 -10.29034 -10.29031
 Alpha  occ. eigenvalues --  -10.29006 -10.28968 -10.28935 -10.28882  -9.60234
 Alpha  occ. eigenvalues --   -8.82803  -7.34908  -7.34008  -7.33957  -6.65010
 Alpha  occ. eigenvalues --   -6.63799  -6.63757  -2.75385  -2.75045  -2.75012
 Alpha  occ. eigenvalues --   -2.74033  -2.74033  -1.13929  -1.03302  -0.99905
 Alpha  occ. eigenvalues --   -0.97187  -0.96538  -0.90480  -0.88897  -0.86236
 Alpha  occ. eigenvalues --   -0.85491  -0.85118  -0.82420  -0.78229  -0.74680
 Alpha  occ. eigenvalues --   -0.70978  -0.70529  -0.70397  -0.68057  -0.63761
 Alpha  occ. eigenvalues --   -0.62664  -0.62116  -0.59081  -0.57246  -0.56840
 Alpha  occ. eigenvalues --   -0.56384  -0.55377  -0.54380  -0.53661  -0.53192
 Alpha  occ. eigenvalues --   -0.53058  -0.51761  -0.51389  -0.50876  -0.49568
 Alpha  occ. eigenvalues --   -0.48293  -0.47519  -0.47093  -0.46805  -0.45799
 Alpha  occ. eigenvalues --   -0.44640  -0.43562  -0.42982  -0.42890  -0.41592
 Alpha  occ. eigenvalues --   -0.40233  -0.37577  -0.36624  -0.35508  -0.34725
 Alpha  occ. eigenvalues --   -0.33889  -0.33532  -0.32628  -0.28796
 Alpha virt. eigenvalues --   -0.00385   0.01896   0.04789   0.05281   0.05870
 Alpha virt. eigenvalues --    0.06380   0.09773   0.11123   0.12790   0.13623
 Alpha virt. eigenvalues --    0.13724   0.14896   0.15709   0.16065   0.16756

 Mulliken charges:
               1
     1  C   -0.305717
     2  C    0.341650
     3  O   -0.477725
     4  C    0.206634
     5  C   -0.263012
     6  H    0.125039
     7  H    0.152447
     8  H    0.149802
     9  N   -0.381380
    10  H    0.275970
    11  H    0.280596
    12  Cl  -0.032494
    13  Br  -0.055571
    14  C    0.189913
    15  C   -0.286617
    16  C   -0.120786
    17  C   -0.146150
    18  C   -0.157619
    19  C   -0.249986
    20  H    0.152089
    21  H    0.141676
    22  H    0.143384
    23  H    0.140635
    24  H    0.163944
    25  C    0.145959
    26  C   -0.223197
    27  C   -0.150226
    28  C   -0.123161
    29  C   -0.158044
    30  C   -0.218850
    31  H    0.142750
    32  H    0.143878
    33  H    0.146969
    34  H    0.143708
    35  H    0.163497
 Sum of Mulliken charges =  -0.00000

 Dipole moment (field-independent basis, Debye):
    X=              0.5200    Y=              2.6625    Z=              3.1465  Tot=              4.1545
 Quadrupole moment (field-independent basis, Debye-Ang):
   XX=           -118.1457   YY=           -141.6290   ZZ=           -120.4899
   XY=             -0.9254   XZ=              9.2085   YZ=             -2.9557

  Exact polarizability: 379.040  -9.960 309.472   3.699 -27.325 308.192
 Approx polarizability: 285.345  -9.906 256.386  -1.362 -24.975 264.072

 ******    1 imaginary frequencies (negative Signs) ******

                      1                      2                      3
                      A                      A                      A
 Frequencies --   -355.8325                28.2643                40.0167
 Red. masses --      5.6245                 6.0150                 4.3968
 Frc consts  --      0.4196                 0.0028                 0.0041
 IR Inten    --    762.4336                 0.6880                 0.2983

                      4                      5                      6
                      A                      A                      A
 Frequencies --     52.6595                61.9260                65.1718
 Red. masses --      5.1260                 4.9145                 3.7787
 Frc consts  --      0.0084                 0.0111                 0.0095
 IR Inten    --      1.3967                 2.7701                 0.5446

                      7                      8                      9
                      A                      A                      A
 Frequencies --     78.3057               102.8580               132.0911
 Red. masses --      2.3706                 5.7705                 5.7597
 Frc consts  --      0.0086                 0.0360                 0.0592
 IR Inten    --      1.2360                 1.3439                 7.9156

                     10                     11                     12
                      A                      A                      A
 Frequencies --    137.0760               147.7530               163.5208
 Red. masses --      2.5060                 2.9748                 3.6189
 Frc consts  --      0.0277                 0.0383                 0.0570
 IR Inten    --     13.4406                 0.4594                 3.1802

                     13                     14                     15
                      A                      A                      A
 Frequencies --    200.9372               211.0348               219.9712
 Red. masses --      2.5838                 8.4393                 5.6710
 Frc consts  --      0.0615                 0.2214                 0.1617
 IR Inten    --      4.3109                 0.3863                 8.2370

                     16                     17                     18
                      A                      A                      A
 Frequencies --    238.9629               255.0934               269.7518
 Red. masses --      5.1137                 4.7848                 4.9261
 Frc consts  --      0.1720                 0.1834                 0.2112
 IR Inten    --      5.0227                23.8319                 5.9570

                     19                     20                     21
                      A                      A                      A
 Frequencies --    312.1379               357.1011               368.8199
 Red. masses --      7.9541                 5.5571                10.4847
 Frc consts  --      0.4566                 0.4175                 0.8403
 IR Inten    --     13.7013                24.1172                16.3088

                     22                     23                     24
                      A                      A                      A
 Frequencies --    415.3518               421.2994               426.0636
 Red. masses --      3.9026                 3.2505                 2.9923
 Frc consts  --      0.3967                 0.3399                 0.3200
 IR Inten    --      1.3356                 2.4482                 0.8990

                     25                     26                     27
                      A                      A                      A
 Frequencies --    519.9500               532.6192               547.5878
 Red. masses --      3.7428                 4.8525                 7.4079
 Frc consts  --      0.5962                 0.8111                 1.3087
 IR Inten    --     38.9260                33.5839                61.6596

                     28                     29                     30
                      A                      A                      A
 Frequencies --    605.0703               635.3447               638.1590
 Red. masses --      1.5178                 6.3229                 6.4926
 Frc consts  --      0.3274                 1.5038                 1.5578
 IR Inten    --      6.4201                 0.8815                 4.5548

                     31                     32                     33
                      A                      A                      A
 Frequencies --    662.3522               673.0126               721.4040
 Red. masses --      4.6430                 4.8210                 1.6805
 Frc consts  --      1.2001                 1.2866                 0.5153
 IR Inten    --    168.3829                43.6977                78.5705

                     34                     35                     36
                      A                      A                      A
 Frequencies --    727.9225               752.2297               757.3599
 Red. masses --      1.5683                 3.0914                 4.0700
 Frc consts  --      0.4896                 1.0306                 1.3755
 IR Inten    --     95.1704                44.4152                71.8783

                     37                     38                     39
                      A                      A                      A
 Frequencies --    792.0506               815.5824               836.5725
 Red. masses --      4.7680                 2.9367                 3.6501
 Frc consts  --      1.7624                 1.1509                 1.5051
 IR Inten    --    139.4260               115.7363                44.5287

                     40                     41                     42
                      A                      A                      A
 Frequencies --    878.1708               878.9333               952.8986
 Red. masses --      1.2484                 1.2496                 1.1454
 Frc consts  --      0.5672                 0.5688                 0.6128
 IR Inten    --      1.3173                 0.9222               170.8647

                     43                     44                     45
                      A                      A                      A
 Frequencies --    959.8957               966.7513               973.2006
 Red. masses --      1.4538                 1.5040                 4.1168
 Frc consts  --      0.7892                 0.8282                 2.2973
 IR Inten    --      9.8393                 8.3136                19.3712

                     46                     47                     48
                      A                      A                      A
 Frequencies --   1014.6805              1015.1533              1021.2357
 Red. masses --      1.3735                 1.3806                 1.1896
 Frc consts  --      0.8332                 0.8383                 0.7310
 IR Inten    --      4.0757                 0.6919                47.1969

                     49                     50                     51
                      A                      A                      A
 Frequencies --   1026.7005              1027.0600              1029.1058
 Red. masses --      5.6343                 5.3356                 1.3645
 Frc consts  --      3.4993                 3.3161                 0.8514
 IR Inten    --      0.7482                 2.1332                 0.2783

                     52                     53                     54
                      A                      A                      A
 Frequencies --   1032.8204              1057.5022              1064.5589
 Red. masses --      1.3206                 2.5449                 2.0719
 Frc consts  --      0.8300                 1.6768                 1.3835
 IR Inten    --      0.5048                17.9864                 6.9265

                     55                     56                     57
                      A                      A                      A
 Frequencies --   1096.2320              1109.1736              1114.4148
 Red. masses --      4.3457                 1.8099                 1.5682
 Frc consts  --      3.0769                 1.3119                 1.1475
 IR Inten    --     31.8429                21.2184                20.6209

                     58                     59                     60
                      A                      A                      A
 Frequencies --   1124.2764              1180.7642              1183.5332
 Red. masses --      2.5189                 1.4388                 1.1342
 Frc consts  --      1.8759                 1.1819                 0.9361
 IR Inten    --     10.1963                21.4087                 0.7696

                     61                     62                     63
                      A                      A                      A
 Frequencies --   1184.6297              1204.9266              1213.1597
 Red. masses --      1.1366                 1.1226                 1.1249
 Frc consts  --      0.9398                 0.9603                 0.9755
 IR Inten    --      0.3889                14.7176                 0.1086

                     64                     65                     66
                      A                      A                      A
 Frequencies --   1254.0083              1307.5458              1320.4781
 Red. masses --      4.4655                 4.4126                 4.4737
 Frc consts  --      4.1373                 4.4449                 4.5960
 IR Inten    --     26.0033               302.7916               315.9293

                     67                     68                     69
                      A                      A                      A
 Frequencies --   1338.7490              1346.3836              1358.3606
 Red. masses --      5.3196                 1.3929                 1.4687
 Frc consts  --      5.6173                 1.4876                 1.5967
 IR Inten    --    425.3973                15.8860                39.3290

                     70                     71                     72
                      A                      A                      A
 Frequencies --   1363.6765              1405.5138              1460.4018
 Red. masses --      1.4511                 5.6326                 1.2376
 Frc consts  --      1.5899                 6.5559                 1.5552
 IR Inten    --     24.5849               787.3786                25.2423

                     73                     74                     75
                      A                      A                      A
 Frequencies --   1486.2689              1489.3292              1492.2987
 Red. masses --      1.0409                 2.2160                 2.2584
 Frc consts  --      1.3547                 2.8960                 2.9632
 IR Inten    --     19.6051                13.4987                26.6879

                     76                     77                     78
                      A                      A                      A
 Frequencies --   1503.6928              1540.1004              1545.1524
 Red. masses --      1.0361                 2.3097                 2.3873
 Frc consts  --      1.3803                 3.2278                 3.3581
 IR Inten    --      7.1035                 1.9278                50.7260

                     79                     80                     81
                      A                      A                      A
 Frequencies --   1632.6130              1645.3033              1649.8545
 Red. masses --      1.4369                 3.7507                 4.6497
 Frc consts  --      2.2566                 5.9821                 7.4570
 IR Inten    --    278.1417                16.2872                20.7649

                     82                     83                     84
                      A                      A                      A
 Frequencies --   1667.6466              1673.3309              1677.2065
 Red. masses --      5.7531                 5.8658                 6.3806
 Frc consts  --      9.4267                 9.6770                10.5751
 IR Inten    --    206.6815                 7.0681                78.4739

                     85                     86                     87
                      A                      A                      A
 Frequencies --   3058.8367              3129.0339              3158.0742
 Red. masses --      1.0347                 1.1017                 1.1045
 Frc consts  --      5.7039                 6.3555                 6.4902
 IR Inten    --     51.9437                12.6183                15.9308

                     88                     89                     90
                      A                      A                      A
 Frequencies --   3191.3501              3195.2125              3196.7393
 Red. masses --      1.0860                 1.0881                 1.0859
 Frc consts  --      6.5166                 6.5452                 6.5382
 IR Inten    --      7.5140                 0.2823                 0.3539

                     91                     92                     93
                      A                      A                      A
 Frequencies --   3204.0037              3204.3008              3211.2434
 Red. masses --      1.0898                 1.0899                 1.0950
 Frc consts  --      6.5918                 6.5935                 6.6527
 IR Inten    --     11.6088                 5.8566                38.9909

                     94                     95                     96
                      A                      A                      A
 Frequencies --   3211.7193              3218.3937              3221.4744
 Red. masses --      1.0921                 1.0950                 1.0989
 Frc consts  --      6.6372                 6.6828                 6.7193
 IR Inten    --     14.6999                29.9538                17.5134

                     97                     98                     99
                      A                      A                      A
 Frequencies --   3224.9711              3509.4913              3616.9493
 Red. masses --      1.0988                 1.0520                 1.0961
 Frc consts  --      6.7331                 7.6339                 8.4487
 IR Inten    --     15.9325                44.8828               102.7606

 - Thermochemistry -
 -------------------
 Temperature   298.150 Kelvin.  Pressure   1.00000 Atm.
 Atom     1 has atomic number  6 and mass  12.00000

 Molecular mass:   351.00255 amu.
 Principal axes and moments of inertia in atomic units:
                           1         2         3
     Eigenvalues --  5282.898278657.31759**********
           X            0.99907   0.03032   0.03078
           Y           -0.02949   0.99919  -0.02721
           Z           -0.03158   0.02627   0.99916
 This molecule is an asymmetric top.
 Rotational symmetry number  1.
 Warning -- assumption of classical behavior for rotation
           may cause significant error
 Rotational temperatures (Kelvin)      0.01640     0.01000     0.00792
 Rotational constants (GHZ):           0.34162     0.20846     0.16494
    1 imaginary frequencies ignored.
 Zero-point vibrational energy     717417.7 (Joules/Mol)
                                  171.46694 (Kcal/Mol)
 Warning -- explicit consideration of  27 degrees of freedom as
           vibrations may cause significant error
 Vibrational temperatures:     40.67    57.58    75.77    89.10    93.77
          (Kelvin)            112.66   147.99   190.05   197.22   212.58
                              235.27   289.10   303.63   316.49   343.81
                              367.02   388.11   449.10   513.79   530.65
                              597.60   606.16   613.01   748.09   766.32
                              787.86   870.56   914.12   918.17   952.98
                              968.32  1037.94  1047.32  1082.29  1089.67
                             1139.58  1173.44  1203.64  1263.49  1264.59
                             1371.01  1381.08  1390.94  1400.22  1459.90
                             1460.58  1469.33  1477.19  1477.71  1480.65
                             1486.00  1521.51  1531.66  1577.23  1595.85
                             1603.39  1617.58  1698.86  1702.84  1704.42
                             1733.62  1745.47  1804.24  1881.27  1899.87
                             1926.16  1937.15  1954.38  1962.03  2022.22
                             2101.19  2138.41  2142.81  2147.08  2163.48
                             2215.86  2223.13  2348.97  2367.22  2373.77
                             2399.37  2407.55  2413.13  4400.98  4501.98
                             4543.76  4591.64  4597.20  4599.39  4609.85
                             4610.27  4620.26  4620.95  4630.55  4634.98
                             4640.01  5049.38  5203.98

 Zero-point correction=                           0.273250 (Hartree/Particle)
 Thermal correction to Energy=                    0.292217
 Thermal correction to Enthalpy=                  0.293162
 Thermal correction to Gibbs Free Energy=         0.223823
 Sum of electronic and zero-point Energies=          -3782.835831
 Sum of electronic and thermal Energies=             -3782.816863
 Sum of electronic and thermal Enthalpies=           -3782.815919
 Sum of electronic and thermal Free Energies=        -3782.885258

                     E (Thermal)             CV                S
                      KCal/Mol        Cal/Mol-Kelvin    Cal/Mol-Kelvin
 Total                  183.369             70.092            145.936
 Electronic               0.000              0.000              0.000
 Translational            0.889              2.981             43.461
 Rotational               0.889              2.981             34.569
 Vibrational            181.592             64.131             67.906
 Vibration     1          0.593              1.984              5.948
 Vibration     2          0.594              1.981              5.258
 Vibration     3          0.596              1.977              4.715
 Vibration     4          0.597              1.972              4.395
 Vibration     5          0.597              1.971              4.294
 Vibration     6          0.600              1.964              3.933
 Vibration     7          0.605              1.947              3.399
 Vibration     8          0.612              1.921              2.915
 Vibration     9          0.614              1.916              2.844
 Vibration    10          0.617              1.905              2.701
 Vibration    11          0.623              1.887              2.509
 Vibration    12          0.638              1.839              2.124
 Vibration    13          0.643              1.824              2.035
 Vibration    14          0.647              1.811              1.959
 Vibration    15          0.657              1.781              1.811
 Vibration    16          0.665              1.754              1.695
 Vibration    17          0.674              1.729              1.598
 Vibration    18          0.700              1.651              1.351
 Vibration    19          0.732              1.561              1.135
 Vibration    20          0.741              1.536              1.085
 Vibration    21          0.779              1.437              0.908
 Vibration    22          0.784              1.424              0.888
 Vibration    23          0.788              1.414              0.872
 Vibration    24          0.875              1.206              0.610
 Vibration    25          0.888              1.178              0.581
 Vibration    26          0.903              1.145              0.549
 Vibration    27          0.964              1.021              0.441

 Optimization completed.
    -- Stationary point found.
 Normal termination of Gaussian 16 at Mon Mar  1 07:03:25 2021.
